LAMMPS data file generated with LigParGen (israel.cabezadevaca@yale.edu)

      30 atoms
      30 bonds
      60 angles
      90 dihedrals
      30 atom types
      30 bond types
      60 angle types
      90 dihedral types

   -3.698000    46.302000 xlo xhi
   -1.779000    48.221000 ylo yhi
   -2.852000    47.148000 zlo zhi

Masses

       1     14.007
       2     12.011
       3     12.011
       4     12.011
       5     12.011
       6     12.011
       7     12.011
       8     12.011
       9     12.011
      10     12.011
      11      1.008
      12      1.008
      13      1.008
      14      1.008
      15      1.008
      16      1.008
      17      1.008
      18      1.008
      19      1.008
      20      1.008
      21      1.008
      22      1.008
      23      1.008
      24      1.008
      25      1.008
      26      1.008
      27      1.008
      28      1.008
      29      1.008
      30      1.008

Pair Coeffs

       1      0.170  3.2500000
       2      0.066  3.5000000
       3      0.066  3.5000000
       4      0.066  3.5000000
       5      0.066  3.5000000
       6      0.066  3.5000000
       7      0.066  3.5000000
       8      0.066  3.5000000
       9      0.066  3.5000000
      10      0.066  3.5000000
      11      0.030  2.5000000
      12      0.030  2.5000000
      13      0.030  2.5000000
      14      0.030  2.5000000
      15      0.030  2.5000000
      16      0.030  2.5000000
      17      0.030  2.5000000
      18      0.030  2.5000000
      19      0.030  2.5000000
      20      0.030  2.5000000
      21      0.030  2.5000000
      22      0.030  2.5000000
      23      0.030  2.5000000
      24      0.030  2.5000000
      25      0.030  2.5000000
      26      0.030  2.5000000
      27      0.030  2.5000000
      28      0.030  2.5000000
      29      0.030  2.5000000
      30      0.030  2.5000000

Bond Coeffs

       1   367.0000     1.4710
       2   367.0000     1.4710
       3   268.0000     1.5290
       4   268.0000     1.5290
       5   268.0000     1.5290
       6   367.0000     1.4710
       7   268.0000     1.5290
       8   268.0000     1.5290
       9   268.0000     1.5290
      10   340.0000     1.0900
      11   340.0000     1.0900
      12   340.0000     1.0900
      13   340.0000     1.0900
      14   340.0000     1.0900
      15   340.0000     1.0900
      16   340.0000     1.0900
      17   340.0000     1.0900
      18   340.0000     1.0900
      19   340.0000     1.0900
      20   340.0000     1.0900
      21   340.0000     1.0900
      22   340.0000     1.0900
      23   340.0000     1.0900
      24   340.0000     1.0900
      25   340.0000     1.0900
      26   340.0000     1.0900
      27   340.0000     1.0900
      28   340.0000     1.0900
      29   340.0000     1.0900
      30   367.0000     1.4710

Angle Coeffs

       1     50.000    113.000
       2     80.000    111.200
       3     58.350    112.700
       4     58.350    112.700
       5     50.000    113.000
       6     80.000    111.200
       7     58.350    112.700
       8     58.350    112.700
       9     37.500    110.700
      10     37.500    110.700
      11     37.500    110.700
      12     37.500    110.700
      13     37.500    110.700
      14     37.500    110.700
      15     37.500    110.700
      16     35.000    109.500
      17     35.000    109.500
      18     35.000    109.500
      19     35.000    109.500
      20     37.500    110.700
      21     37.500    110.700
      22     37.500    110.700
      23     37.500    110.700
      24     37.500    110.700
      25     37.500    110.700
      26     35.000    109.500
      27     35.000    109.500
      28     35.000    109.500
      29     50.000    113.000
      30     50.000    113.000
      31     50.000    113.000
      32     37.500    110.700
      33     37.500    110.700
      34     37.500    110.700
      35     37.500    110.700
      36     37.500    110.700
      37     37.500    110.700
      38     50.000    113.000
      39     37.500    110.700
      40     37.500    110.700
      41     37.500    110.700
      42     37.500    110.700
      43     37.500    110.700
      44     37.500    110.700
      45     33.000    107.800
      46     33.000    107.800
      47     33.000    107.800
      48     33.000    107.800
      49     33.000    107.800
      50     33.000    107.800
      51     33.000    107.800
      52     33.000    107.800
      53     33.000    107.800
      54     35.000    109.500
      55     33.000    107.800
      56     35.000    109.500
      57     33.000    107.800
      58     33.000    107.800
      59     33.000    107.800
      60     80.000    111.200

Dihedral Coeffs

       1      1.438     -0.124      0.264      0.000
       2      2.732     -0.229      0.485      0.000
       3      0.850     -0.200      0.200      0.000
       4      1.438     -0.124      0.264      0.000
       5      1.438     -0.124      0.264      0.000
       6      2.732     -0.229      0.485      0.000
       7      0.850     -0.200      0.200      0.000
       8      0.000      0.000      0.300      0.000
       9      0.000      0.000      0.300      0.000
      10      0.000      0.000      0.300      0.000
      11      0.000      0.000      0.300      0.000
      12      0.000      0.000      0.300      0.000
      13      0.000      0.000      0.384      0.000
      14      0.000      0.000      0.384      0.000
      15      0.000      0.000      0.302      0.000
      16      0.000      0.000      0.302      0.000
      17      0.000      0.000      0.302      0.000
      18      0.000      0.000      0.302      0.000
      19      0.000      0.000      0.384      0.000
      20      0.000      0.000      0.384      0.000
      21      0.000      0.000      0.300      0.000
      22      0.000      0.000      0.300      0.000
      23      0.000      0.000      0.300      0.000
      24      0.000      0.000      0.300      0.000
      25      0.000      0.000      0.302      0.000
      26      0.000      0.000      0.302      0.000
      27      0.000      0.000      0.302      0.000
      28      1.438     -0.124      0.264      0.000
      29      0.000      0.000      0.302      0.000
      30      0.000      0.000      0.302      0.000
      31      1.438     -0.124      0.264      0.000
      32      0.000      0.000      0.302      0.000
      33      0.000      0.000      0.302      0.000
      34      0.000      0.000      0.302      0.000
      35      0.000      0.000      0.302      0.000
      36      0.000      0.000      0.302      0.000
      37      1.438     -0.124      0.264      0.000
      38      0.000      0.000      0.300      0.000
      39      0.000      0.000      0.300      0.000
      40      0.000      0.000      0.300      0.000
      41      0.000      0.000      0.300      0.000
      42      1.438     -0.124      0.264      0.000
      43      0.000      0.000      0.302      0.000
      44      0.000      0.000      0.302      0.000
      45      0.000      0.000      0.302      0.000
      46      0.000      0.000      0.302      0.000
      47      0.000      0.000      0.302      0.000
      48      0.000      0.000      0.302      0.000
      49      0.000      0.000      0.302      0.000
      50      1.438     -0.124      0.264      0.000
      51      0.000      0.000      0.302      0.000
      52      0.000      0.000      0.302      0.000
      53      0.000      0.000      0.302      0.000
      54      0.000      0.000      0.302      0.000
      55      1.438     -0.124      0.264      0.000
      56      0.000      0.000      0.302      0.000
      57      0.000      0.000      0.302      0.000
      58      0.000      0.000      0.300      0.000
      59      0.000      0.000      0.300      0.000
      60      0.000      0.000      0.300      0.000
      61      0.000      0.000      0.300      0.000
      62      0.000      0.000      0.300      0.000
      63      0.000      0.000      0.300      0.000
      64      0.000      0.000      0.300      0.000
      65      0.000      0.000      0.300      0.000
      66      0.000      0.000      0.300      0.000
      67      0.000      0.000      0.300      0.000
      68      0.000      0.000      0.300      0.000
      69      0.000      0.000      0.300      0.000
      70      0.000      0.000      0.300      0.000
      71      0.000      0.000      0.300      0.000
      72      0.000      0.000      0.300      0.000
      73      0.000      0.000      0.300      0.000
      74      0.000      0.000      0.300      0.000
      75      0.000      0.000      0.300      0.000
      76      0.000      0.000      0.300      0.000
      77      0.000      0.000      0.300      0.000
      78      0.000      0.000      0.300      0.000
      79      0.000      0.000      0.300      0.000
      80      0.000      0.000      0.300      0.000
      81      0.000      0.000      0.300      0.000
      82      0.000      0.000      0.300      0.000
      83      0.000      0.000      0.300      0.000
      84      0.000      0.000      0.384      0.000
      85      0.000      0.000      0.300      0.000
      86      0.000      0.000      0.300      0.000
      87      0.000      0.000      0.384      0.000
      88      0.000      0.000      0.300      0.000
      89      0.000      0.000      0.300      0.000
      90      2.732     -0.229      0.485      0.000

Atoms

     1      1      1   0.256168 -0.70500  0.13200 -0.43100
     2      1      2  -0.185924  0.46000  1.03600 -0.68500
     3      1      3  -0.196401 -0.73300 -0.39600  0.96200
     4      1      4  -0.191043 -2.19600 -0.71900  1.30400
     5      1      5  -0.205949 -3.02100  0.13700  0.34100
     6      1      6  -0.180022 -1.98100  0.90000 -0.49300
     7      1      7  -0.228667 -0.74400 -0.98200 -1.41900
     8      1      8  -0.196570  1.85400  0.36200 -0.61000
     9      1      9  -0.184067  2.45900  0.01600 -1.98500
    10      1     10  -0.218915  3.84800 -0.62300 -1.86700
    11      1     11   0.089234  4.55600  0.04000 -1.36700
    12      1     12   0.089234  3.81900 -1.56100 -1.30900
    13      1     13   0.089234  4.26000 -0.84600 -2.85200
    14      1     14   0.089094  2.54600  0.92100 -2.59100
    15      1     15   0.089094  1.81400 -0.66000 -2.54600
    16      1     16   0.124243  2.54100  1.06300 -0.12800
    17      1     17   0.124243  1.85500 -0.51300  0.04000
    18      1     18   0.140064  0.44600  1.84800  0.04800
    19      1     19   0.140064  0.34500  1.54100 -1.64800
    20      1     20   0.155895 -0.37600  0.36700  1.66000
    21      1     21   0.155895 -0.08300 -1.26200  1.11100
    22      1     22   0.130888 -2.42600 -0.50400  2.35100
    23      1     23   0.130888 -2.41100 -1.77900  1.15100
    24      1     24   0.132813 -3.69800  0.81500  0.86600
    25      1     25   0.132813 -3.64800 -0.49700 -0.29200
    26      1     26   0.149189 -1.85200  1.88900 -0.04400
    27      1     27   0.149189 -2.32400  1.08200 -1.51500
    28      1     28   0.139771 -1.64000 -1.59600 -1.31800
    29      1     29   0.139771 -0.72800 -0.60800 -2.44500
    30      1     30   0.139774  0.10500 -1.65600 -1.30600

Bonds

     1      1      2      1
     2      2      3      1
     3      3      4      3
     4      4      5      4
     5      5      6      5
     6      6      7      1
     7      7      8      2
     8      8      9      8
     9      9     10      9
    10     10     11     10
    11     11     12     10
    12     12     13     10
    13     13     14      9
    14     14     15      9
    15     15     16      8
    16     16     17      8
    17     17     18      2
    18     18     19      2
    19     19     20      3
    20     20     21      3
    21     21     22      4
    22     22     23      4
    23     23     24      5
    24     24     25      5
    25     25     26      6
    26     26     27      6
    27     27     28      7
    28     28     29      7
    29     29     30      7
    30     30      6      1

Angles

     1      1      3      1      2
     2      2      4      3      1
     3      3      5      4      3
     4      4      6      5      4
     5      5      7      1      3
     6      6      8      2      1
     7      7      9      8      2
     8      8     10      9      8
     9      9     11     10      9
    10     10     12     10      9
    11     11     13     10      9
    12     12     14      9      8
    13     13     15      9      8
    14     14     16      8      2
    15     15     17      8      2
    16     16     18      2      1
    17     17     19      2      1
    18     18     20      3      1
    19     19     21      3      1
    20     20     22      4      3
    21     21     23      4      3
    22     22     24      5      4
    23     23     25      5      4
    24     24     26      6      5
    25     25     27      6      5
    26     26     28      7      1
    27     27     29      7      1
    28     28     30      7      1
    29     29      6      1      2
    30     30      7      1      2
    31     31      6      1      3
    32     32     20      3      4
    33     33     21      3      4
    34     34     22      4      5
    35     35     23      4      5
    36     36     24      5      6
    37     37     25      5      6
    38     38      7      1      6
    39     39     18      2      8
    40     40     19      2      8
    41     41     16      8      9
    42     42     17      8      9
    43     43     14      9     10
    44     44     15      9     10
    45     45     12     10     11
    46     46     13     10     11
    47     47     13     10     12
    48     48     15      9     14
    49     49     17      8     16
    50     50     19      2     18
    51     51     21      3     20
    52     52     23      4     22
    53     53     25      5     24
    54     54      1      6     26
    55     55     27      6     26
    56     56      1      6     27
    57     57     29      7     28
    58     58     30      7     28
    59     59     30      7     29
    60     60      5      6      1

Dihedrals

     1      1      4      3      1      2
     2      2      5      4      3      1
     3      3      6      5      4      3
     4      4      7      1      3      4
     5      5      8      2      1      3
     6      6      9      8      2      1
     7      7     10      9      8      2
     8      8     11     10      9      8
     9      9     12     10      9      8
    10     10     13     10      9      8
    11     11     14      9      8      2
    12     12     15      9      8      2
    13     13     16      8      2      1
    14     14     17      8      2      1
    15     15     18      2      1      3
    16     16     19      2      1      3
    17     17     20      3      1      2
    18     18     21      3      1      2
    19     19     22      4      3      1
    20     20     23      4      3      1
    21     21     24      5      4      3
    22     22     25      5      4      3
    23     23     26      6      5      4
    24     24     27      6      5      4
    25     25     28      7      1      2
    26     26     29      7      1      2
    27     27     30      7      1      2
    28     28      5      6      1      2
    29     29     26      6      1      2
    30     30     27      6      1      2
    31     31      5      6      1      3
    32     32     26      6      1      3
    33     33     27      6      1      3
    34     34     28      7      1      3
    35     35     29      7      1      3
    36     36     30      7      1      3
    37     37      6      1      3      4
    38     38     20      3      4      5
    39     39     21      3      4      5
    40     40     22      4      5      6
    41     41     23      4      5      6
    42     42      8      2      1      6
    43     43     18      2      1      6
    44     44     19      2      1      6
    45     45     20      3      1      6
    46     46     21      3      1      6
    47     47     28      7      1      6
    48     48     29      7      1      6
    49     49     30      7      1      6
    50     50      8      2      1      7
    51     51     18      2      1      7
    52     52     19      2      1      7
    53     53     20      3      1      7
    54     54     21      3      1      7
    55     55      5      6      1      7
    56     56     26      6      1      7
    57     57     27      6      1      7
    58     58     18      2      8      9
    59     59     19      2      8      9
    60     60     16      8      9     10
    61     61     17      8      9     10
    62     62     14      9     10     11
    63     63     15      9     10     11
    64     64     14      9     10     12
    65     65     15      9     10     12
    66     66     14      9     10     13
    67     67     15      9     10     13
    68     68     16      8      9     14
    69     69     17      8      9     14
    70     70     16      8      9     15
    71     71     17      8      9     15
    72     72     18      2      8     16
    73     73     19      2      8     16
    74     74     18      2      8     17
    75     75     19      2      8     17
    76     76     22      4      3     20
    77     77     23      4      3     20
    78     78     22      4      3     21
    79     79     23      4      3     21
    80     80     24      5      4     22
    81     81     25      5      4     22
    82     82     24      5      4     23
    83     83     25      5      4     23
    84     84      1      6      5     24
    85     85     26      6      5     24
    86     86     27      6      5     24
    87     87      1      6      5     25
    88     88     26      6      5     25
    89     89     27      6      5     25
    90     90      4      5      6      1


