LAMMPS data file via write_data, version 3 Mar 2020, timestep = 496

371 atoms
999 atom types
218 bonds
469 bond types
125 angles
1432 angle types
0 dihedrals
1195 dihedral types
0 impropers
4 improper types

-2.0000000000000000e+00 3.1994209000000001e+01 xlo xhi
-2.0000000000000000e+00 3.1998125000000002e+01 ylo yhi
-2.0000000000000000e+00 3.1958304999999999e+01 zlo zhi

Masses

1 1.008
2 4.003
3 6.941
4 9.012
5 10.811
6 12.011
7 14.007
8 15.999
9 18.998
10 20.179
11 22.99
12 24.305
13 26.982
14 28.086
15 30.974
16 32.065
17 35.453
18 39.948
19 20.179
20 79.904
21 126.905
22 12.011
23 12.011
24 12.011
25 12.011
26 12.011
27 12.011
28 1.008
29 12.011
30 12.011
31 12.011
32 12.011
33 12.011
34 12.011
35 12.011
36 12.011
37 12.011
38 12.011
39 12.011
40 12.011
41 12.011
42 12.011
43 12.011
44 12.011
45 15.999
46 1.008
47 12.011
48 12.011
49 32.065
50 32.065
51 32.065
52 32.065
53 1.008
54 1.008
55 12.011
56 12.011
57 12.011
58 12.011
59 12.011
60 12.011
61 14.007
62 12.011
63 12.011
64 1
65 4.003
66 20.179
67 39.948
68 83.798
69 131.293
70 12.011
71 12.011
72 15.999
73 12.011
74 12.011
75 12.011
76 35.453
77 12.011
78 35.453
79 12.011
80 35.453
81 32.065
82 15.999
83 12.011
84 14.007
85 1.008
86 15.999
87 14.007
88 12.011
89 12.011
90 12.011
91 12.011
92 12.011
93 12.011
94 12.011
95 1.008
96 12.011
97 12.011
98 12.011
99 1.008
100 12.011
101 1.008
102 12.011
103 12.011
104 12.011
105 12.011
106 35.453
107 12.011
108 1.008
109 15.999
110 1.008
111 1.008
112 12.011
113 12.011
114 12.011
115 15.999
116 12.011
117 12.011
118 15.999
119 1.008
120 15.999
121 1.008
122 15.999
123 1.008
124 12.011
125 12.011
126 12.011
127 1.008
128 15.999
129 12.011
130 15.999
131 15.999
132 12.011
133 12.011
134 12.011
135 12.011
136 1.008
137 15.999
138 15.999
139 1.008
140 12.011
141 1.008
142 12.011
143 1.008
144 12.011
145 1.008
146 12.011
147 1.008
148 12.011
149 12.011
150 12.011
151 32.065
152 32.065
153 32.065
154 32.065
155 1.008
156 1.008
157 12.011
158 12.011
159 12.011
160 12.011
161 12.011
162 12.011
163 12.011
164 12.011
165 12.011
166 12.011
167 12.011
168 12.011
169 12.011
170 12.011
171 12.011
172 12.011
173 32.065
174 12.011
175 12.011
176 12.011
177 35.453
178 12.011
179 12.011
180 12.011
181 12.011
182 12.011
183 12.011
184 12.011
185 12.011
186 12.011
187 15.999
188 14.007
189 14.007
190 14.007
191 1.008
192 1.008
193 12.011
194 12.011
195 12.011
196 12.011
197 12.011
198 12.011
199 15.999
200 14.007
201 1.008
202 14.007
203 12.011
204 15.999
205 1.008
206 1.008
207 12.011
208 12.011
209 12.011
210 12.011
211 12.011
212 12.011
213 14.007
214 12.011
215 35.453
216 14.007
217 12.011
218 12.011
219 15.999
220 15.999
221 1.008
222 12.011
223 15.999
224 12.011
225 12.011
226 12.011
227 12.011
228 12.011
229 15.999
230 1.008
231 12.011
232 15.999
233 1.008
234 12.011
235 12.011
236 12.011
237 14.007
238 14.007
239 14.007
240 1.008
241 1.008
242 12.011
243 12.011
244 12.011
245 12.011
246 12.011
247 12.011
248 12.011
249 12.011
250 12.011
251 14.007
252 1.008
253 12.011
254 14.007
255 1.008
256 12.011
257 12.011
258 12.011
259 12.011
260 14.007
261 1.008
262 14.007
263 12.011
264 14.007
265 1.008
266 12.011
267 1.008
268 12.011
269 1.008
270 14.007
271 12.011
272 14.007
273 12.011
274 12.011
275 12.011
276 1.008
277 15.999
278 1.008
279 15.999
280 1.008
281 1.008
282 12.011
283 1.008
284 14.007
285 12.011
286 14.007
287 12.011
288 12.011
289 12.011
290 1.008
291 15.999
292 14.007
293 1.008
294 1.008
295 1.008
296 1.008
297 14.007
298 12.011
299 14.007
300 12.011
301 12.011
302 12.011
303 14.007
304 12.011
305 14.007
306 1.008
307 14.007
308 1.008
309 1.008
310 1.008
311 1.008
312 14.007
313 12.011
314 14.007
315 12.011
316 12.011
317 12.011
318 1.008
319 14.007
320 1.008
321 15.999
322 12.011
323 1.008
324 12.011
325 1.008
326 12.011
327 1.008
328 14.007
329 12.011
330 14.007
331 12.011
332 12.011
333 12.011
334 1.008
335 15.999
336 1.008
337 14.007
338 1.008
339 1.008
340 1.008
341 1.008
342 12.011
343 1.008
344 30.974
345 15.999
346 15.999
347 12.011
348 12.011
349 35.453
350 12.011
351 18.998
352 35.453
353 79.904
354 126.905
355 14.007
356 6.941
357 22.99
358 39.098
359 85.468
360 132.905
361 24.305
362 40.078
363 87.62
364 137.327
365 12.011
366 1.008
367 32.065
368 12.011
369 1.008
370 15.999
371 12.011
372 1.008
373 12.011
374 14.007
375 12.011
376 1.008
377 14.007
378 1.008
379 12.011
380 1.008
381 12.011
382 1.008
383 4.003
384 15.999
385 1.008
386 238.029
387 15.999
388 12.011
389 15.999
390 30.974
391 15.999
392 15.999
393 12.011
394 1.008
395 30.974
396 15.999
397 15.999
398 12.011
399 1.008
400 30.974
401 15.999
402 15.999
403 12.011
404 1.008
405 12.011
406 1.008
407 12.011
408 12.011
409 1.008
410 12.011
411 12.011
412 1.008
413 12.011
414 12.011
415 12.011
416 15.999
417 15.999
418 12.011
419 1.008
420 12.011
421 12.011
422 12.011
423 15.999
424 32.065
425 15.999
426 12.011
427 1.008
428 14.007
429 1.008
430 14.007
431 1.008
432 12.011
433 1.008
434 12.011
435 1.008
436 12.011
437 1.008
438 12.011
439 12.011
440 12.011
441 12.011
442 12.011
443 32.065
444 15.999
445 32.065
446 32.065
447 15.999
448 12.011
449 12.011
450 12.011
451 12.011
452 12.011
453 14.007
454 1.008
455 12.011
456 12.011
457 12.011
458 12.011
459 12.011
460 12.011
461 14.007
462 14.007
463 1.008
464 12.011
465 12.011
466 12.011
467 12.011
468 12.011
469 12.011
470 14.007
471 12.011
472 12.011
473 12.011
474 1.008
475 1.008
476 1.008
477 14.007
478 12.011
479 1.008
480 14.007
481 12.011
482 12.011
483 12.011
484 1.008
485 1.008
486 1.008
487 14.007
488 12.011
489 12.011
490 1.008
491 1.008
492 14.007
493 12.011
494 12.011
495 1.008
496 1.008
497 1.008
498 14.007
499 14.007
500 12.011
501 12.011
502 12.011
503 1.008
504 1.008
505 1.008
506 1.008
507 14.007
508 12.011
509 14.007
510 12.011
511 12.011
512 1.008
513 1.008
514 1.008
515 1.008
516 15.999
517 12.011
518 12.011
519 1.008
520 1.008
521 15.999
522 12.011
523 14.007
524 12.011
525 12.011
526 1.008
527 1.008
528 1.008
529 15.999
530 14.007
531 12.011
532 12.011
533 12.011
534 1.008
535 1.008
536 1.008
537 14.007
538 12.011
539 12.011
540 12.011
541 12.011
542 12.011
543 12.011
544 12.011
545 12.011
546 1.008
547 1.008
548 1.008
549 1.008
550 1.008
551 1.008
552 1.008
553 14.007
554 12.011
555 12.011
556 12.011
557 12.011
558 12.011
559 12.011
560 12.011
561 12.011
562 12.011
563 1.008
564 1.008
565 1.008
566 1.008
567 1.008
568 1.008
569 1.008
570 14.007
571 12.011
572 14.007
573 12.011
574 12.011
575 12.011
576 14.007
577 12.011
578 14.007
579 1.008
580 1.008
581 1.008
582 1.008
583 32.065
584 12.011
585 14.007
586 12.011
587 12.011
588 1.008
589 1.008
590 1.008
591 14.007
592 12.011
593 1.008
594 12.011
595 12.011
596 14.007
597 12.011
598 12.011
599 12.011
600 12.011
601 12.011
602 12.011
603 1.008
604 1.008
605 1.008
606 1.008
607 14.007
608 12.011
609 14.007
610 12.011
611 12.011
612 12.011
613 1.008
614 1.008
615 1.008
616 1.008
617 12.011
618 12.011
619 12.011
620 12.011
621 12.011
622 12.011
623 12.011
624 12.011
625 12.011
626 12.011
627 12.011
628 12.011
629 12.011
630 12.011
631 12.011
632 32.065
633 1.008
634 12.011
635 12.011
636 14.007
637 12.011
638 12.011
639 12.011
640 12.011
641 12.011
642 12.011
643 12.011
644 12.011
645 12.011
646 32.065
647 227
648 232.038
649 243
650 12.011
651 12.011
652 1.008
653 138.905
654 144.242
655 151.964
656 157.25
657 173.04
658 12.011
659 35.453
660 1.008
661 12.011
662 12.011
663 12.011
664 12.011
665 12.011
666 12.011
667 12.011
668 18.998
669 12.011
670 18.998
671 79.904
672 12.011
673 12.011
674 12.011
675 18.998
676 12.011
677 18.998
678 12.011
679 79.904
680 12.011
681 126.905
682 12.011
683 32.065
684 12.011
685 12.011
686 12.011
687 12.011
688 12.011
689 1.008
690 1.008
691 12.011
692 14.007
693 1.008
694 1.008
695 1.008
696 12.011
697 12.011
698 14.007
699 14.007
700 14.007
701 12.011
702 14.007
703 12.011
704 12.011
705 12.011
706 12.011
707 12.011
708 1.008
709 14.007
710 15.999
711 12.011
712 1.008
713 12.011
714 12.011
715 12.011
716 14.007
717 12.011
718 12.011
719 14.007
720 15.999
721 12.011
722 15.999
723 12.011
724 12.011
725 12.011
726 1.008
727 1.008
728 1.008
729 15.999
730 30.974
731 12.011
732 12.011
733 1.008
734 30.974
735 18.998
736 14.007
737 15.999
738 12.011
739 12.011
740 12.011
741 18.998
742 12.011
743 1.008
744 12.011
745 1.008
746 14.007
747 14.007
748 14.007
749 12.011
750 12.011
751 12.011
752 12.011
753 12.011
754 12.011
755 1.008
756 1.008
757 1.008
758 12.011
759 12.011
760 12.011
761 12.011
762 12.011
763 12.011
764 12.011
765 12.011
766 12.011
767 12.011
768 12.011
769 12.011
770 12.011
771 12.011
772 1.008
773 12.011
774 12.011
775 12.011
776 12.011
777 12.011
778 12.011
779 12.011
780 15.999
781 1.008
782 14.007
783 14.007
784 14.007
785 12.011
786 14.007
787 1.008
788 12.011
789 12.011
790 12.011
791 12.011
792 12.011
793 12.011
794 12.011
795 12.011
796 1.008
797 12.011
798 12.011
799 14.007
800 15.999
801 1.008
802 18.998
803 12.011
804 1.008
805 12.011
806 12.011
807 12.011
808 12.011
809 12.011
810 12.011
811 18.998
812 12.011
813 1.008
814 12.011
815 12.011
816 35.453
817 12.011
818 1.008
819 12.011
820 12.011
821 79.904
822 12.011
823 1.008
824 12.011
825 12.011
826 18.998
827 35.453
828 79.904
829 12.011
830 15.999
831 12.011
832 18.998
833 14.007
834 12.011
835 12.011
836 12.011
837 12.011
838 15.999
839 14.007
840 1.008
841 15.999
842 1.008
843 12.011
844 12.011
845 12.011
846 12.011
847 12.011
848 12.011
849 12.011
850 65.377
851 1e-17
852 1e-17
853 1e-17
854 12.011
855 35.453
856 12.011
857 12.011
858 12.011
859 126.905
860 1.008
861 12.011
862 79.904
863 12.011
864 126.905
865 14.007
866 12.011
867 15.999
868 12.011
869 12.011
870 12.011
871 1.008
872 12.011
873 14.007
874 12.011
875 12.011
876 15.999
877 14.007
878 12.011
879 12.011
880 12.011
881 12.011
882 1.008
883 12.011
884 15.999
885 1.008
886 12.011
887 12.011
888 12.011
889 12.011
890 12.011
891 12.011
892 12.011
893 12.011
894 12.011
895 12.011
896 28.086
897 28.086
898 28.086
899 28.086
900 1.008
901 12.011
902 12.011
903 12.011
904 12.011
905 12.011
906 28.086
907 28.086
908 28.086
909 15.999
910 1.008
911 28.086
912 28.086
913 28.086
914 15.999
915 28.086
916 28.086
917 28.086
918 28.086
919 28.086
920 28.086
921 12.011
922 1.008
923 12.011
924 1.008
925 18.998
926 35.453
927 79.904
928 126.905
929 6.941
930 22.99
931 39.098
932 85.468
933 132.905
934 24.305
935 40.078
936 87.62
937 137.327
938 12.011
939 12.011
940 12.011
941 12.011
942 1.008
943 14.007
944 12.011
945 14.007
946 12.011
947 12.011
948 12.011
949 1.008
950 12.011
951 12.011
952 12.011
953 12.011
954 12.011
955 15.999
956 12.011
957 15.999
958 12.011
959 32.065
960 12.011
961 14.007
962 12.011
963 12.011
964 1.008
965 1.008
966 12.011
967 12.011
968 15.999
969 1.008
970 18.998
971 1.008
972 12.011
973 12.011
974 12.011
975 12.011
976 15.999
977 1.008
978 15.999
979 1.008
980 1e-17
981 15.999
982 1.008
983 1e-17
984 15.999
985 15.999
986 1.008
987 1.008
988 15.999
989 1.008
990 1e-17
991 107.868
992 12.011
993 15.999
994 15.999
995 32.067
996 15.999
997 15.999
998 15.999
999 15.999

Pair Coeffs # lj/cut/coul/long

1 0.03 2.46
2 0.02 2.556
3 0.018 2.126
4 0.05 3.25
5 0.05 3.6
6 0.068 3.55
7 0.17 3.25
8 0.17 3
9 0.06 2.9
10 0.069 2.78
11 0.003 3.33
12 0.05 3.4
13 0.1 4.05
14 0.1 4
15 0.2 3.74
16 0.355 3.6
17 0.3 3.4
18 0.234 3.401
19 0.1 2
20 0.47 3.47
21 0.58 3.55
22 0.066 3.55
23 0.072 3.4
24 0.07 3.34
25 0.066 3.51
26 0.066 3.5
27 0.066 3.5
28 0.026 2.48
29 0.066 3.55
30 0.066 3.51
31 0.066 3.5
32 0.066 3.5
33 0.294 3.73
34 0.207 3.775
35 0.175 3.905
36 0.16 3.91
37 0.145 3.96
38 0.118 3.905
39 0.14 3.85
40 0.08 3.85
41 0.115 3.8
42 0.11 3.75
43 0.05 3.8
44 0.105 3.75
45 0.17 3.07
46 0 0
47 0.207 3.775
48 0.118 3.905
49 0.25 3.7
50 0.25 3.55
51 0.25 3.55
52 0.25 3.55
53 0 0
54 0 0
55 0.207 3.775
56 0.118 3.905
57 0.17 3.8
58 0.118 3.8
59 0.17 3.8
60 0.118 3.8
61 0.17 3.2
62 0.15 3.65
63 0.207 3.775
64 0 0
65 0.02 2.556
66 0.069 2.78
67 0.2339 3.401
68 0.317 3.624
69 0.433 3.935
70 0.08 3.85
71 0.05 3.8
72 0.17 3
73 0.17 3.8
74 0.118 3.8
75 0.118 3.8
76 0.3 3.4
77 0.08 3.8
78 0.3 3.47
79 0.05 3.8
80 0.266 3.47
81 0.395 3.56
82 0.28 2.93
83 0.16 3.81
84 0.17 3.42
85 0 0
86 0.21 2.96
87 0.17 3.25
88 0.115 3.8
89 0.17 3.8
90 0.066 3.5
91 0.066 3.5
92 0.066 3.5
93 0.06 3.57
94 0.066 3.5
95 0.03 2.5
96 0.076 3.55
97 0.076 3.55
98 0.076 3.55
99 0.03 2.42
100 0.068 3.55
101 0.03 2.42
102 0.068 3.55
103 0.066 3.5
104 0.066 3.5
105 0.076 3.55
106 0.3 3.4
107 0.066 3.5
108 0.03 2.5
109 0.17 3.12
110 0 0
111 0.03 2.5
112 0.066 3.5
113 0.066 3.5
114 0.066 3.5
115 0.17 3.15
116 0.068 3.55
117 0.068 3.55
118 0.17 3.07
119 0 0
120 0.17 3.07
121 0 0
122 0.17 3.07
123 0 0
124 0.066 3.51
125 0.066 3.5
126 0.066 3.5
127 0.026 2.48
128 0.14 2.9
129 0.076 3.55
130 0.14 2.9
131 0.12 2.9
132 0.066 3.5
133 0.066 3.5
134 0.066 3.5
135 0.066 3.5
136 0.026 2.48
137 0.14 2.9
138 0.17 3.07
139 0 0
140 0.066 3.5
141 0.03 2.5
142 0.066 3.5
143 0.03 2.5
144 0.066 3.5
145 0.03 2.5
146 0.066 3.5
147 0.03 2.5
148 0.066 3.5
149 0.066 3.5
150 0.068 3.55
151 0.425 3.6
152 0.25 3.7
153 0.355 3.6
154 0.355 3.6
155 0 0
156 0 0
157 0.066 3.5
158 0.066 3.5
159 0.066 3.5
160 0.066 3.5
161 0.066 3.5
162 0.066 3.5
163 0.066 3.5
164 0.066 3.5
165 0.066 3.5
166 0.066 3.5
167 0.066 3.5
168 0.066 3.5
169 0.066 3.5
170 0.066 3.5
171 0.066 3.5
172 0.068 3.55
173 0.355 3.6
174 0.066 3.5
175 0.066 3.5
176 0.066 3.5
177 0.3 3.4
178 0.076 3.55
179 0.068 3.55
180 0.066 3.5
181 0.066 3.5
182 0.105 3.75
183 0.105 3.75
184 0.105 3.75
185 0.105 3.75
186 0.105 3.75
187 0.21 2.96
188 0.17 3.25
189 0.17 3.25
190 0.17 3.25
191 0 0
192 0 0
193 0.066 3.5
194 0.066 3.5
195 0.066 3.5
196 0.066 3.5
197 0.066 3.5
198 0.105 3.75
199 0.21 2.96
200 0.17 3.25
201 0 0
202 0.17 3.25
203 0.105 3.75
204 0.21 2.96
205 0 0
206 0.02 2.5
207 0.066 3.5
208 0.066 3.5
209 0.066 3.5
210 0.066 3.5
211 0.068 3.55
212 0.15 3.65
213 0.17 3.2
214 0.068 3.55
215 0.3 3.4
216 0.17 3.25
217 0.068 3.55
218 0.105 3.75
219 0.17 3
220 0.21 2.96
221 0 0
222 0.105 3.75
223 0.21 2.96
224 0.066 3.5
225 0.066 3.5
226 0.066 3.5
227 0.066 3.5
228 0.105 3.75
229 0.21 2.96
230 0.03 2.42
231 0.105 3.75
232 0.21 2.96
233 0.015 2.42
234 0.066 3.5
235 0.066 3.5
236 0.066 3.5
237 0.29 3.48
238 0.29 3.48
239 0.29 3.48
240 0 0
241 0 0
242 0.066 3.5
243 0.066 3.5
244 0.066 3.5
245 0.066 3.5
246 0.066 3.5
247 0.066 3.5
248 0.066 3.5
249 0.066 3.5
250 0.066 3.5
251 0.17 3.25
252 0 0
253 0.05 3.55
254 0.17 3.25
255 0 0
256 0.066 3.5
257 0.066 3.5
258 0.066 3.5
259 0.066 3.5
260 0.29 3.48
261 0 0
262 0.17 3.25
263 0.08 3.5
264 0.17 3.25
265 0 0
266 0.08 3.5
267 0.05 2.5
268 0.08 3.5
269 0.05 2.5
270 0.17 3.25
271 0.105 3.75
272 0.17 3.25
273 0.105 3.75
274 0.08 3.5
275 0.08 3.5
276 0 0
277 0.21 2.96
278 0 0
279 0.21 2.96
280 0.05 2.5
281 0.05 2.5
282 0.08 3.5
283 0.05 2.5
284 0.17 3.25
285 0.105 3.75
286 0.17 3.25
287 0.08 3.5
288 0.08 3.5
289 0.08 3.5
290 0 0
291 0.21 2.96
292 0.17 3.25
293 0 0
294 0 0
295 0.05 2.5
296 0.05 2.5
297 0.17 3.25
298 0.08 3.5
299 0.17 3.25
300 0.08 3.5
301 0.08 3.5
302 0.08 3.5
303 0.17 3.25
304 0.08 3.5
305 0.17 3.25
306 0.05 2.5
307 0.17 3.25
308 0 0
309 0 0
310 0.05 2.5
311 0 0
312 0.17 3.25
313 0.08 3.5
314 0.17 3.25
315 0.08 3.5
316 0.08 3.5
317 0.105 3.75
318 0 0
319 0.17 3.25
320 0 0
321 0.21 2.96
322 0.08 3.5
323 0.05 2.5
324 0.08 3.5
325 0.05 2.5
326 0.08 3.5
327 0.05 2.5
328 0.17 3.25
329 0.105 3.75
330 0.17 3.25
331 0.08 3.5
332 0.08 3.5
333 0.08 3.5
334 0 0
335 0.21 2.96
336 0 0
337 0.17 3.25
338 0 0
339 0 0
340 0.05 2.5
341 0.05 2.5
342 0.08 3.5
343 0.05 2.5
344 0.2 3.74
345 0.21 2.96
346 0.17 3
347 0.066 3.55
348 0.08 3.5
349 0.3 3.4
350 0.076 3.55
351 0.71 3.05
352 0.71 4.02
353 0.71 4.28
354 0.71 4.81
355 0.0005 5.34
356 0.0005 2.87
357 0.0005 4.07
358 0.0005 5.17
359 0.0005 5.6
360 0.0005 6.2
361 0.875044 1.64447
362 0.449657 2.41203
363 0.118226 3.10269
364 0.047096 3.81661
365 0.3 4.2
366 0.05 2.5
367 0.5 4.25
368 0.3 4.2
369 0.05 2.5
370 0.25 3.15
371 0.3 4.2
372 0.05 2.5
373 0.15 3.65
374 0.25 3.4
375 0.3 4.2
376 0.05 2.5
377 0.25 3.4
378 0.05 2.5
379 0.3 4.2
380 0.05 2.5
381 0.3 4.2
382 0.05 2.5
383 0 0
384 0.25 3.2
385 0 0
386 0.4 2.81524
387 0.2 3.11815
388 0.066 3.5
389 0.14 2.9
390 0.2 3.74
391 0.2 3.15
392 0.14 2.9
393 0.066 3.5
394 0.03 2.5
395 0.2 3.74
396 0.2 3.15
397 0.14 2.9
398 0.066 3.5
399 0.03 2.5
400 0.2 3.74
401 0.2 3.15
402 0.14 2.9
403 0.066 3.5
404 0.03 2.5
405 0.066 3.5
406 0.03 2.5
407 0.068 3.55
408 0.066 3.5
409 0.03 2.5
410 0.068 3.55
411 0.066 3.5
412 0.03 2.5
413 0.068 3.55
414 0.066 3.5
415 0.105 3.75
416 0.14 2.96
417 0.12 3
418 0.066 3.5
419 0.026 2.48
420 0.105 3.75
421 0.105 3.75
422 0.068 3.55
423 0.17 3
424 0.25 3.55
425 0.17 2.96
426 0.066 3.5
427 0.03 2.5
428 0.17 3.25
429 0 0
430 0.17 3.25
431 0 0
432 0.066 3.5
433 0.03 2.5
434 0.066 3.5
435 0.03 2.5
436 0.066 3.5
437 0.03 2.5
438 0.068 3.55
439 0.068 3.55
440 0.066 3.5
441 0.066 3.5
442 0.066 3.5
443 0.25 3.55
444 0.17 2.96
445 0.395 3.56
446 0.395 3.56
447 0.28 2.93
448 0.066 3.5
449 0.066 3.5
450 0.07 3.55
451 0.07 3.55
452 0.07 3.55
453 0.17 3.25
454 0 0
455 0.066 3.5
456 0.07 3.55
457 0.07 3.55
458 0.07 3.55
459 0.07 3.55
460 0.07 3.55
461 0.17 3.25
462 0.17 3.25
463 0 0
464 0.07 3.55
465 0.066 3.5
466 0.066 3.5
467 0.076 3.55
468 0.076 3.55
469 0.068 3.55
470 0.17 3.25
471 0.07 3.55
472 0.07 3.55
473 0.07 3.55
474 0.03 2.42
475 0.03 2.42
476 0.03 2.42
477 0.17 3.25
478 0.07 3.55
479 0.03 2.42
480 0.17 3.25
481 0.07 3.55
482 0.07 3.55
483 0.07 3.55
484 0.03 2.42
485 0.03 2.42
486 0.03 2.42
487 0.17 3.25
488 0.07 3.55
489 0.07 3.55
490 0.03 2.42
491 0.03 2.42
492 0.17 3.25
493 0.07 3.55
494 0.07 3.55
495 0 0
496 0.03 2.42
497 0.03 2.42
498 0.17 3.25
499 0.17 3.25
500 0.07 3.55
501 0.07 3.55
502 0.07 3.55
503 0 0
504 0.03 2.42
505 0.03 2.42
506 0.03 2.42
507 0.17 3.25
508 0.07 3.55
509 0.17 3.25
510 0.07 3.55
511 0.07 3.55
512 0 0
513 0.03 2.42
514 0.03 2.42
515 0.03 2.42
516 0.14 2.9
517 0.07 3.55
518 0.076 3.55
519 0.03 2.42
520 0.03 2.42
521 0.14 2.9
522 0.07 3.55
523 0.17 3.25
524 0.07 3.55
525 0.07 3.55
526 0.03 2.42
527 0.03 2.42
528 0.03 2.42
529 0.14 2.9
530 0.17 3.25
531 0.07 3.55
532 0.07 3.55
533 0.07 3.55
534 0.03 2.42
535 0.03 2.42
536 0.03 2.42
537 0.17 3.25
538 0.07 3.55
539 0.07 3.55
540 0.07 3.55
541 0.07 3.55
542 0.07 3.55
543 0.07 3.55
544 0.07 3.55
545 0.07 3.55
546 0 0
547 0.03 2.42
548 0.03 2.42
549 0.03 2.42
550 0.03 2.42
551 0.03 2.42
552 0.03 2.42
553 0.17 3.25
554 0.07 3.55
555 0.07 3.55
556 0.07 3.55
557 0.07 3.55
558 0.07 3.55
559 0.07 3.55
560 0.07 3.55
561 0.07 3.55
562 0.07 3.55
563 0.03 2.42
564 0.03 2.42
565 0.03 2.42
566 0.03 2.42
567 0.03 2.42
568 0.03 2.42
569 0.03 2.42
570 0.17 3.25
571 0.07 3.55
572 0.17 3.25
573 0.07 3.55
574 0.07 3.55
575 0.07 3.55
576 0.17 3.25
577 0.07 3.55
578 0.17 3.25
579 0.03 2.42
580 0.03 2.42
581 0.03 2.42
582 0 0
583 0.355 3.6
584 0.07 3.55
585 0.17 3.25
586 0.07 3.55
587 0.07 3.55
588 0.03 2.42
589 0.03 2.42
590 0.03 2.42
591 0.17 3.25
592 0.07 3.55
593 0.03 2.42
594 0.07 3.55
595 0.066 3.5
596 0.17 3.25
597 0.07 3.55
598 0.07 3.55
599 0.07 3.55
600 0.07 3.55
601 0.07 3.55
602 0.07 3.55
603 0.03 2.42
604 0.03 2.42
605 0.03 2.42
606 0.03 2.42
607 0.17 3.25
608 0.07 3.55
609 0.17 3.25
610 0.07 3.55
611 0.07 3.55
612 0.066 3.5
613 0.03 2.42
614 0.03 2.42
615 0.03 2.42
616 0.03 2.5
617 0.066 3.5
618 0.066 3.5
619 0.066 3.5
620 0.066 3.5
621 0.066 3.5
622 0.066 3.5
623 0.066 3.5
624 0.066 3.5
625 0.066 3.5
626 0.066 3.5
627 0.066 3.5
628 0.066 3.5
629 0.066 3.5
630 0.066 3.5
631 0.066 3.5
632 0.425 3.6
633 0 0
634 0.07 3.55
635 0.105 3.75
636 0.17 3.25
637 0.066 3.5
638 0.066 3.5
639 0.066 3.5
640 0.07 3.55
641 0.07 3.55
642 0.07 3.55
643 0.07 3.55
644 0.07 3.55
645 0.07 3.55
646 0.355 3.6
647 0.054 3.473
648 0.05 3.3
649 0.05 3.3
650 0.076 3.55
651 0.066 3.5
652 0.03 2.5
653 0.06 3.75
654 0.054 3.473
655 0.05 3.3
656 0.05 3.3
657 0.04 2.95
658 0.076 3.55
659 0.3 3.4
660 0.03 2.42
661 0.088 3.43
662 0.088 3.43
663 0.088 3.43
664 0.077 3.47
665 0.077 3.47
666 0.077 3.47
667 0.068 3.55
668 0.061 2.85
669 0.068 3.55
670 0.061 2.85
671 0.47 3.47
672 0.118 3.905
673 0.068 3.55
674 0.062 3.25
675 0.061 2.94
676 0.068 3.55
677 0.061 2.85
678 0.068 3.55
679 0.45 3.47
680 0.068 3.55
681 0.58 3.8
682 0.066 3.5
683 0.425 3.6
684 0.068 3.55
685 0.068 3.55
686 0.068 3.55
687 0.068 3.55
688 0.068 3.55
689 0.03 2.42
690 0.03 2.42
691 0.05 3.55
692 0.17 3.25
693 0 0
694 0 0
695 0.03 2.42
696 0.066 3.5
697 0.066 3.5
698 0.17 3.25
699 0.17 3.25
700 0.17 3.25
701 0.05 3.55
702 0.17 3.2
703 0.066 3.3
704 0.066 3.3
705 0.066 3.3
706 0.066 3.3
707 0.066 3.3
708 0.015 2.5
709 0.12 3.25
710 0.17 2.96
711 0.066 3.5
712 0.015 2.5
713 0.066 3.5
714 0.066 3.5
715 0.066 3.5
716 0.12 3.25
717 0.068 3.55
718 0.066 3.3
719 0.17 3.25
720 0.21 2.96
721 0.105 3.75
722 0.17 3
723 0.066 3.5
724 0.066 3.5
725 0.066 3.5
726 0.015 2.42
727 0.015 2.42
728 0.015 2.42
729 0.14 2.9
730 0.2 3.74
731 0.066 3.5
732 0.066 3.5
733 0.03 2.5
734 0.2 3.74
735 0.061 3.1181
736 0.17 3.15
737 0.21 2.86
738 0.066 3.5
739 0.068 3.55
740 0.062 3.25
741 0.061 2.94
742 0.068 3.55
743 0.03 2.5
744 0.06 3.57
745 0.026 2.48
746 0.17 3.3
747 0.17 3.3
748 0.17 3.3
749 0.066 3.5
750 0.066 3.5
751 0.066 3.5
752 0.066 3.5
753 0.066 3.5
754 0.066 3.5
755 0 0
756 0 0
757 0.015 2.5
758 0.066 3.5
759 0.066 3.5
760 0.066 3.5
761 0.066 3.5
762 0.068 3.55
763 0.068 3.55
764 0.068 3.55
765 0.066 3.5
766 0.066 3.5
767 0.066 3.5
768 0.066 3.5
769 0.066 3.5
770 0.066 3.5
771 0.11 3.5
772 0.015 2.42
773 0.066 3.55
774 0.066 3.51
775 0.066 3.5
776 0.066 3.5
777 0.066 3.5
778 0.066 3.5
779 0.066 3.5
780 0.17 3.12
781 0 0
782 0.17 3.25
783 0.17 3.25
784 0.17 3.25
785 0.21 3.3
786 0.29 3.48
787 0 0
788 0.066 3.5
789 0.066 3.5
790 0.066 3.5
791 0.066 3.5
792 0.07 3.55
793 0.076 3.55
794 0.07 3.55
795 0.07 3.55
796 0.03 2.5
797 0.066 3.5
798 0.105 3.75
799 0.29 3.48
800 0.21 2.96
801 0 0
802 0.061 2.94
803 0.066 3.5
804 0.03 2.5
805 0.066 3.5
806 0.066 3.5
807 0.066 3.5
808 0.066 3.5
809 0.066 3.5
810 0.097 3.5
811 0.053 2.95
812 0.062 3.25
813 0.03 2.5
814 0.066 3.5
815 0.066 3.5
816 0.3 3.4
817 0.066 3.5
818 0.03 2.5
819 0.066 3.5
820 0.066 3.5
821 0.47 3.47
822 0.066 3.5
823 0.03 2.5
824 0.066 3.5
825 0.066 3.5
826 0.061 2.94
827 0.3 3.4
828 0.47 3.47
829 0.068 3.55
830 0.14 2.9
831 0.066 3.5
832 0.06 2.9
833 0.17 3.25
834 0.068 3.55
835 0.066 3.5
836 0.105 3.75
837 0.105 3.75
838 0.21 2.96
839 0.17 3.25
840 0 0
841 0.17 3.12
842 0 0
843 0.066 3.5
844 0.066 3.5
845 0.07 3.55
846 0.07 3.55
847 0.07 3.55
848 0.07 3.55
849 0.068 3.55
850 0.0125 1.96
851 0 0
852 0 0
853 0 0
854 0.068 3.55
855 0.3 3.4
856 0.066 3.5
857 0.066 3.5
858 0.066 3.5
859 0.6 3.75
860 0.03 2.5
861 0.068 3.55
862 0.47 3.47
863 0.068 3.55
864 0.6 3.75
865 0.17 3.25
866 0.068 3.55
867 0.14 2.9
868 0.066 3.5
869 0.066 3.5
870 0.066 3.5
871 0.03 2.5
872 0.068 3.55
873 0.17 3.25
874 0.068 3.55
875 0.105 3.75
876 0.21 2.96
877 0.17 3.25
878 0.066 3.5
879 0.066 3.5
880 0.066 3.5
881 0.066 3.5
882 0.015 2.42
883 0.105 3.75
884 0.21 2.96
885 0.015 2.42
886 0.066 3.5
887 0.066 3.5
888 0.066 3.5
889 0.066 3.5
890 0.066 3.5
891 0.066 3.5
892 0.066 3.5
893 0.066 3.5
894 0.066 3.5
895 0.066 3.5
896 0.1 4
897 0.1 4
898 0.1 4
899 0.1 4
900 0.03 2.5
901 0.066 3.5
902 0.066 3.5
903 0.066 3.5
904 0.066 3.5
905 0.07 3.55
906 0.1 4
907 0.1 4
908 0.1 4
909 0.17 3.12
910 0 0
911 0.1 4
912 0.1 4
913 0.1 4
914 0.14 2.9
915 0.1 4
916 0.1 4
917 0.1 4
918 0.1 4
919 0.1 4
920 0.1 4
921 0.07 3.55
922 0.03 2.42
923 0.07 3.55
924 0.03 2.42
925 0.72 3.08
926 0.11779 4.18
927 0.09 4.51
928 0.07 5.15
929 0.018279 2.7
930 0.002772 3.35
931 0.000328 4.06
932 0.000171 4.32
933 8.1e-05 4.82
934 0.875044 2.91
935 0.449657 3.47
936 0.118226 3.82
937 0.047096 4.18
938 0.066 3.5
939 0.066 3.5
940 0.066 3.5
941 0.066 3.5
942 0.03 2.5
943 0.29 3.48
944 0.068 3.55
945 0.29 3.48
946 0.068 3.55
947 0.076 3.55
948 0.076 3.55
949 0.03 2.42
950 0.086 3.3
951 0.086 3.3
952 0.086 3.3
953 0.086 3.3
954 0.086 3.3
955 0.21 2.96
956 0.06762 2.62
957 0.188814 2.93
958 0.066 3.5
959 0.355 3.6
960 0.07 3.55
961 0.17 3.25
962 0.07 3.55
963 0.07 3.55
964 0.03 2.42
965 0.03 2.42
966 0.066 3.5
967 0.062 3.25
968 0.17 3.07
969 0 0
970 0.061 2.94
971 0.03 2.5
972 0.088 3.43
973 0.076 3.55
974 0.088 3.43
975 0.11 3.5
976 0.102 3.188
977 0 0
978 0.16275 3.16435
979 0 0
980 0 1
981 0.178 3.097
982 0 1
983 0 1
984 0.1553 3.166
985 0.1553 3.166
986 0 0
987 0 0
988 0.2128 3.16655
989 0 0
990 0 1.7818
991 0.056 2.934
992 0.066 3.3
993 0.21 2.96
994 0.21 2.96
995 0.25 3.55
996 0.17 2.96
997 0.17 2.96
998 0.17 2.96
999 0.17 2.96

Bond Coeffs # harmonic

1 317 1.495
2 388 1.459
3 546 1.352
4 546 1.352
5 317 1.495
6 546 1.352
7 340 1.08
8 320 1.486
9 385 1.46
10 385 1.38
11 385 1.46
12 385 1.46
13 385 1.46
14 385 1.46
15 385 1.46
16 385 1.46
17 385 1.46
18 427 1.381
19 483 1.339
20 385 1.42
21 532.8 1.084
22 260 1.526
23 260 1.526
24 317 1.51
25 317 1.504
26 317 1.51
27 260 1.526
28 367 1.38
29 337 1.463
30 367 1.471
31 382 1.448
32 337 1.449
33 386 1.425
34 320 1.425
35 222 1.81
36 222 1.81
37 260 1.526
38 260 1.526
39 317 1.51
40 337 1.463
41 367 1.471
42 382 1.448
43 337 1.449
44 337 1.475
45 386 1.425
46 320 1.425
47 222 1.81
48 222 1.81
49 317 1.5
50 317 1.5
51 530 1.34
52 317 1.5
53 317 1.5
54 317 1.5
55 317 1.5
56 530 1.34
57 530 1.34
58 317 1.5
59 317 1.5
60 530 1.34
61 530 1.34
62 530 1.34
63 385 1.46
64 317 1.51
65 400 1.426
66 385 1.46
67 340 1.08
68 340 1.08
69 481 1.34
70 415 1.428
71 457 1.29
72 481 1.34
73 300 1.87
74 469 1.4
75 427 1.433
76 469 1.4
77 469 1.404
78 469 1.4
79 469 1.4
80 427 1.433
81 427 1.433
82 469 1.4
83 317 1.51
84 546 1.367
85 317 1.49
86 400 1.451
87 300 1.725
88 427 1.433
89 420 1.354
90 367 1.08
91 250 2.08
92 481 1.34
93 400 1.45
94 427 1.381
95 414 1.391
96 483 1.339
97 400 1.46
98 481 1.34
99 382 1.385
100 400 1.41
101 427 1.381
102 450 1.364
103 450 1.364
104 220 1.78
105 250 1.74
106 250 1.76
107 469 1.4
108 520 1.37
109 469 1.4
110 447 1.419
111 317 1.51
112 520 1.41
113 436 1.374
114 414 1.391
115 461 1.354
116 436 1.374
117 340 1.36
118 520 1.37
119 512 1.375
120 518 1.371
121 317 1.504
122 512 1.375
123 518 1.371
124 422 1.385
125 410 1.394
126 469 1.4
127 469 1.4
128 469 1.4
129 529 1.304
130 440 1.371
131 268 1.529
132 367 1.332
133 410 1.394
134 427 1.381
135 260 1.526
136 382 1.448
137 337 1.449
138 337 1.475
139 386 1.425
140 320 1.425
141 502 1.324
142 549 1.35
143 549 1.35
144 448 1.365
145 367 1.08
146 340 1.08
147 440 1.371
148 529 1.304
149 440 1.371
150 300 1.9
151 549 1.34
152 549 1.34
153 317 1.51
154 317 1.51
155 400 1.426
156 300 1.725
157 420 1.34
158 367 1.08
159 340 1.08
160 340 1.08
161 250 2.08
162 448 1.365
163 483 1.339
164 427 1.381
165 448 1.365
166 450 1.37
167 450 1.37
168 250 1.76
169 428 1.38
170 260 1.526
171 260 1.526
172 337 1.475
173 320 1.38
174 385 1.46
175 546 1.38
176 278 1.496
177 367 1.08
178 477 1.343
179 488 1.335
180 481 1.38
181 278 1.366
182 340 1.356
183 250 1.71
184 250 1.74
185 220 1.763
186 250 1.74
187 367 1.08
188 367 1.08
189 481 1.34
190 502 1.324
191 427 1.381
192 300 1.87
193 520 1.37
194 300 1.725
195 420 1.354
196 367 1.08
197 367 1.08
198 250 2.08
199 481 1.34
200 477 1.343
201 488 1.335
202 461 1.354
203 477 1.343
204 477 1.343
205 250 1.76
206 250 1.76
207 300 1.87
208 469 1.424
209 469 1.424
210 317 1.495
211 546 1.367
212 300 1.725
213 420 1.354
214 367 1.08
215 250 2.08
216 400 1.29
217 245 1.945
218 532.8 1.46
219 260 1.526
220 260 1.526
221 268 1.529
222 268 1.529
223 317 1.49
224 390 1.47
225 245 1.781
226 367 1.36
227 340 1.09
228 200 2.19
229 337 1.463
230 367 1.471
231 337 1.475
232 337 1.449
233 337 1.475
234 337 1.449
235 375 1.49
236 382 1.448
237 382 1.448
238 390 1.43
239 337 1.449
240 337 1.449
241 337 1.475
242 320 1.41
243 320 1.41
244 212 1.82
245 212 1.843
246 222 1.81
247 222 1.81
248 300 1.87
249 469 1.421
250 469 1.424
251 520 1.37
252 400 1.451
253 300 1.725
254 420 1.354
255 367 1.08
256 250 2.08
257 410 1.32
258 427 1.381
259 300 1.87
260 317 1.504
261 520 1.37
262 300 1.725
263 420 1.354
264 367 1.08
265 367 1.08
266 250 2.08
267 410 1.394
268 300 1.87
269 549 1.365
270 481 1.454
271 481 1.454
272 278 1.488
273 512 1.375
274 317 1.465
275 300 1.725
276 420 1.354
277 367 1.08
278 367 1.08
279 250 2.08
280 427 1.381
281 410 1.394
282 481 1.385
283 427 1.381
284 340 1.36
285 340 1.36
286 250 1.74
287 250 1.74
288 317 1.504
289 520 1.37
290 367 1.08
291 427 1.381
292 280 1.473
293 280 1.51
294 260 1.52
295 400 1.436
296 340 1.088
297 382 1.448
298 337 1.449
299 337 1.449
300 260 1.445
301 222 1.81
302 330 1.784
303 1150 1.21
304 330 1.637
305 450 1.279
306 650 1.157
307 300 1.685
308 317 1.522
309 490 1.335
310 570 1.229
311 549 1.365
312 385 1.46
313 317 1.51
314 400 1.444
315 549 1.345
316 340 1.08
317 340 1.08
318 457 1.29
319 300 1.98
320 317 1.522
321 317 1.522
322 400 1.49
323 447 1.419
324 469 1.4
325 317 1.522
326 410 1.444
327 410 1.444
328 317 1.522
329 400 1.49
330 400 1.49
331 400 1.444
332 300 1.79
333 350 1.51
334 420 1.357
335 457 1.29
336 418 1.388
337 457 1.358
338 490 1.335
339 317 1.522
340 400 1.29
341 490 1.335
342 424 1.383
343 656 1.25
344 450 1.364
345 214 1.327
346 570 1.229
347 400 1.64
348 700 1.305
349 700 1.168
350 340 0.3
351 300 0.3
352 367 0.3
353 340 0.3
354 340 0.3
355 340 0.3
356 300 0.3
357 340 0.3
358 340 0.3
359 300 0.3
360 340 0.3
361 340 0.3
362 340 0.1
363 340 0.1
364 340 0.1
365 300 0.3
366 340 0.3
367 367 0.3
368 367 0.3
369 340 0.3
370 367 0.3
371 340 0.3
372 340 0.1
373 340 0.3
374 340 0.3
375 553 0.3
376 340 0.5
377 340 0.5
378 434 1.01
379 434 1.01
380 434 1.01
381 434 1.01
382 340 1.09
383 420 1.08
384 340 1.09
385 0 1.75
386 553 0.945
387 553 0.945
388 274 1.336
389 434 1.01
390 434 1.01
391 434 1.01
392 434 1.01
393 434 1.01
394 434 1.01
395 400 1.349
396 400 1.28
397 250 1.73
398 250 1.73
399 434 1.01
400 500 1.32
401 550 1.24
402 550 1.21
403 418 1.388
404 434 1.01
405 550 1.225
406 337 1.475
407 427 1.381
408 350 1.43
409 320 1.45
410 320 1.45
411 385 1.44
412 427 1.38
413 400 1.35