LAMMPS data file via write_data, version 10 Sep 2025, timestep = 342, units = real

2318 atoms
21 atom types
1789 bonds
16 bond types
2162 angles
26 angle types
1557 dihedrals
21 dihedral types

-0.029233 30.019244 xlo xhi
-0.072719 30.016558 ylo yhi
-0.061799 30.010534 zlo zhi

Masses

1 32.067
2 18.998
3 18.998
4 18.998
5 15.999
6 15.999
7 15.999
8 12.011
9 65.38
10 39.0983
11 15.9994
12 1.008
13 18.998
14 18.998
15 18.998
16 15.999
17 12.011
18 12.011
19 1.008
20 1.008
21 1.008

Pair Coeffs # lj/cut/coul/long

1 0.25 3.55
2 0.06 2.9
3 0.06 2.9
4 0.06 2.9
5 0.17 2.96
6 0.17 2.96
7 0.17 2.96
8 0.066 3.5
9 0.0125 1.96
10 0.0005 5.17
11 0.1521 3.15061
12 0 0
13 0.06 2.9
14 0.06 2.9
15 0.06 2.9
16 0.17 3.12
17 0.066 3.5
18 0.066 3.5
19 0.03 2.5
20 0.03 2.5
21 0 0

Bond Coeffs # harmonic

1 340 1.77
2 367 1.332
3 367 1.332
4 367 1.332
5 700 1.44
6 700 1.44
7 700 1.44
8 450 0.9572
9 367 1.332
10 367 1.332
11 367 1.332
12 268 1.529
13 320 1.41
14 340 1.09
15 340 1.09
16 553 0.945

Angle Coeffs # harmonic

1 50 109.5
2 50 109.5
3 50 109.5
4 74 108.9
5 74 108.9
6 74 108.9
7 77 109.1
8 77 109.1
9 77 109.1
10 104 123
11 104 123
12 104 123
13 55 104.52
14 77 109.1
15 77 109.1
16 50 109.5
17 50 109.5
18 37.5 110.7
19 37.5 110.7
20 55 108.5
21 77 109.1
22 50 109.5
23 50 109.5
24 35 109.5
25 35 109.5
26 33 107.8

Dihedral Coeffs # opls

1 0 0 0 0
2 0 0 0 0
3 0 0 0 0
4 0 0 0 0
5 0 0 0 0
6 0 0 0 0
7 0 0 0 0
8 0 0 0 0
9 0 0 0 0
10 0 0 0.54 0
11 0 0 0.36 0
12 0 0 0.36 0
13 -0.5 0.2 0.3 0
14 0 0 0.54 0
15 0 0 0.36 0
16 0 0 0.36 0
17 0 0 0.54 0
18 0 0 0.36 0
19 0 0 0.36 0
20 0 0 0.352 0
21 0 0 0.352 0

Atoms # full

206 26 6 -0.473736 7.2724013180425615 2.951396051969755 4.800707171900049 0 0 0
207 26 7 -0.473736 6.886162942477925 0.5678053263807388 4.577234010809736 0 0 0
519 104 11 -0.834 0.953407347511003 5.701670148228603 1.7727125470381124 0 0 0
520 104 12 0.417 1.1624593980776565 5.870319824709189 2.717613634456515 0 0 0
521 104 12 0.417 1.1086354464011834 6.62594101979842 1.456331470738259 0 0 0
522 105 11 -0.834 2.6657086064788023 3.29893239264678 6.728461184628907 0 0 0
523 105 12 0.417 3.6395246293320143 3.267229368590906 6.671043451031712 0 0 0
576 123 11 -0.834 0.7417174152450624 3.104049631184352 4.864231133152752 0 0 0
577 123 12 0.417 0.15945939927200098 3.734320733656838 5.33999633664672 0 0 0
578 123 12 0.417 1.4911147712286932 3.065844561216275 5.5148763985804505 0 0 0
708 167 11 -0.834 0.6297099835851034 2.922142744295319 2.2701050944258445 0 0 0
911 234 12 0.417 8.026587217536568 7.307359769839077 7.503431527005326 0 0 0
710 167 12 0.417 0.4903174479419333 1.9501811816021333 2.376300476295991 0 0 0
156 20 4 -0.139407 6.942825528939227 6.920815547504936 14.136820843521338 0 0 0
2275 525 14 -0.168263 6.719957673461957 6.1426366568917645 8.497521716113003 0 0 0
880 224 12 0.417 4.724482804717621 0.41060949464106344 13.4724231976326 0 1 0
1095 296 11 -0.834 3.880859170838406 1.10592577594904 4.310372519126348 0 0 0
1096 296 12 0.417 4.555519680928716 1.2447055037226762 3.6387199614721 0 0 0
1097 296 12 0.417 3.6720223617191956 0.17032556821016123 4.172396043458527 0 0 0
127 16 7 -0.473736 7.211484675360655 6.7157818338782 3.755725832847657 0 0 0
160 20 8 -0.013746 8.08060085147937 7.282995915714337 14.725770042463672 0 0 0
2126 508 18 0.405083 8.169142759074298 0.5702451900516744 7.952685409301877 0 0 0
1679 458 21 0.423629 12.722953563267316 6.536031049733468 11.36580677117549 0 0 0
1674 458 16 -0.642765 12.726415348799463 6.969438175635789 12.232956379405248 0 0 0
153 20 1 1.053176 9.403307024676288 6.188238036347864 14.248985458787597 0 0 0
1180 324 12 0.417 13.133168907828843 6.386687795572133 8.9900458901538 0 0 0
1525 439 12 0.417 4.74654985844706 7.029279434277572 2.574669552654134 0 0 0
1725 464 13 -0.168263 1.940313493866982 6.13933136747335 6.775826743104864 0 0 0
833 208 12 0.417 7.510709650801439 0.32932712971304157 14.788538132951745 0 0 0
1727 464 15 -0.168263 1.5107956135257958 6.298792014217004 4.646459567995867 0 0 0
1526 439 12 0.417 4.292257842310982 7.19690859977894 1.157029961283615 0 0 0
1069 287 12 0.417 11.712086319938752 4.235235397722038 12.95532502633929 0 0 0
1730 464 18 0.405083 1.198182385684364 6.757296232464539 5.861808098823724 0 0 0
2123 508 15 -0.168263 7.6813588325821325 1.535819671161842 7.185196809218659 0 0 0
2122 508 14 -0.168263 9.490309431242476 0.5640747617744537 7.818236141245424 0 0 0
2211 518 13 -0.168263 3.600850035912697 5.011097753605468 1.5738079798388578 0 0 0
2212 518 14 -0.168263 4.172151743473314 2.9754881931703494 2.033424795497109 0 0 0
2213 518 15 -0.168263 5.681578667897187 4.522567873658682 1.793481362857467 0 0 0
2214 518 16 -0.642765 4.642709797678267 5.968825275810661 3.9503711331706346 0 0 0
2215 518 17 0.04591 4.3549661377885975 4.5929924021921265 3.7394537966027186 0 0 0
2216 518 18 0.405083 4.463058799059014 4.255042427041566 2.247882150619396 0 0 0
2217 518 19 0.136466 3.355314150177793 4.363718407742515 4.108412617701541 0 0 0
2218 518 20 0.136466 5.0415310601754975 3.9743164590649185 4.316080604567414 0 0 0
2219 518 21 0.423629 5.5903723557523 6.048643535919965 4.102126055965726 0 0 0
2274 525 13 -0.168263 6.812296720067793 5.477549564205815 6.442153522804578 0 0 0
2276 525 15 -0.168263 4.906481583223084 6.010953788354295 7.309992794928432 0 0 0
2277 525 16 -0.642765 5.419467727893176 3.2151282078563694 6.901182170701622 0 0 0
2279 525 18 0.405083 6.086547721559536 5.447533229764025 7.555783059324369 0 0 0
2282 525 21 0.423629 6.125130360901622 3.2199027436859233 6.2495291431258915 0 0 0
121 16 1 1.053176 8.651301250002614 6.6691212601579934 3.8141454058436435 0 0 0
122 16 2 -0.139407 8.29058363627855 4.645173866051188 2.261431809960538 0 0 0
123 16 3 -0.139407 10.323429792815432 5.360631141146236 2.3634953007290416 0 0 0
124 16 4 -0.139407 8.832480785174498 6.468419909883836 1.256461867646074 0 0 0
126 16 6 -0.473736 9.209001150490195 5.890489145138819 4.892802431908795 0 0 0
128 16 8 -0.013746 9.047522233699702 5.736005452356172 2.3484709881901984 0 0 0
201 26 1 1.053176 7.344056014150993 1.7835121646741194 3.9565904702795693 0 0 0
202 26 2 -0.139407 9.654790880115073 1.2895480436947584 4.965429621341702 0 0 0
203 26 3 -0.139407 9.689603383668775 2.605633244628837 3.2597665593236402 0 0 0
477 78 10 0.8 4.347834541151216 0.39649939416156876 7.405647316025615 0 1 0
205 26 5 -0.473736 6.867103044914124 1.9596964697677717 2.6080862708046553 0 0 0
208 26 8 -0.013746 9.10043361129263 1.5287914932751496 3.775783268391475 0 0 0
210 27 2 -0.139407 12.806584425441512 6.289663479864821 1.345868230142122 0 0 0
493 94 10 0.8 14.484784271223278 3.956109346395369 0.5251061125760174 0 0 1
1642 454 20 0.136466 10.562567983248718 1.362389911751147 13.560016673245215 0 0 0
709 167 12 0.417 0.7265063817328951 3.0966893426168496 3.255265177049136 0 0 0
602 131 12 0.417 1.6945205050090155 4.836646814509689 9.2522343443635 0 0 0
1181 324 12 0.417 13.777922821404493 5.211989814816147 9.679004105373417 0 0 0
2284 526 14 -0.168263 0.6202922608073296 5.886200829804457 12.952173701842637 0 0 0
159 20 7 -0.473736 9.152340176606549 5.96544274023447 12.847518255127877 0 0 0
1379 390 12 0.417 9.131835634714937 4.492167836874586 0.07018010688195048 0 0 0
1440 411 11 -0.834 12.044327678052499 3.320041656312638 1.8055672886369696 0 0 0
1441 411 12 0.417 11.409700020359026 2.632537884319733 2.0429864846716517 0 0 0
1442 411 12 0.417 11.621639639297898 4.106556540744421 2.1830223878401323 0 0 0
1467 420 11 -0.834 6.446929777518691 1.0340455990902635 0.015099601076130929 0 0 0
216 27 8 -0.013746 12.244621750120023 7.4200219823741245 0.9232407199236087 0 0 0
1469 420 12 0.417 6.4024783372915275 1.3392595076403464 0.9400620392548718 0 0 0
1485 426 11 -0.834 9.38727741971702 3.880299810774432 6.755948898032542 0 0 0
1486 426 12 0.417 9.49138432079297 4.6381534851774004 6.152112172072253 0 0 0
1487 426 12 0.417 9.008377956359007 3.2301674039964476 6.147930224587141 0 0 0
1662 457 13 -0.168263 14.238379747464393 5.921576570011139 5.284774931261642 0 0 0
1663 457 14 -0.168263 12.508477800212988 5.094266593429532 6.3069252645398075 0 0 0
1664 457 15 -0.168263 12.629323759690607 5.036943438259384 4.140426840451527 0 0 0
1643 454 21 0.423629 8.394491746843663 2.5038574872189683 14.194692959132656 0 0 0
1666 457 17 0.04591 14.032704473916825 3.5877314127955726 5.3433657590034676 0 0 0
1667 457 18 0.405083 13.329029683383428 4.949853199277603 5.269494527656457 0 0 0
1668 457 19 0.136466 14.625083299019963 3.535159781672399 6.2592371056805804 0 0 0
1669 457 20 0.136466 13.285777600476505 2.793570047526762 5.3925440455389415 0 0 0
2289 526 19 0.136466 0.3610549263431033 3.363645896430838 13.729847887416257 0 0 0
2125 508 17 0.04591 7.771626030551905 0.835505784956676 9.408663456718516 0 0 0
169 22 1 1.053176 5.99425146048214 3.1255265321866488 12.541949831531568 0 0 0
170 22 2 -0.139407 5.232540689578945 5.559883472922334 12.175920604371992 0 0 0
171 22 3 -0.139407 4.349505710916134 4.565814657197678 13.882927644627 0 0 0
172 22 4 -0.139407 3.701088744437438 4.06873486407048 11.87528684702043 0 0 0
173 22 5 -0.473736 5.247411078896363 1.9379781496663708 12.874101036632783 0 0 0
174 22 6 -0.473736 6.945099448152474 3.537985480107875 13.543346612594801 0 0 0
175 22 7 -0.473736 6.444860839699772 3.185502870527659 11.174539198988695 0 0 0
176 22 8 -0.013746 4.753439312540638 4.399991625075552 12.622341176515716 0 0 0
524 105 12 0.417 2.5707248873122297 3.764395812549005 7.585500820479006 0 0 0
600 131 11 -0.834 2.632662080902216 4.571973412484138 9.175475827903664 0 0 0
601 131 12 0.417 3.0766420987849448 5.273074379036482 9.670026286664761 0 0 0
2128 508 20 0.136466 8.258824397674022 1.7462973958731864 9.761490264241429 0 0 0
1022 271 12 0.417 0.2553244177886636 1.344008111438752 4.280096271807665 0 0 0
1134 309 11 -0.834 10.46749939914955 2.9937845386700994 9.087822096300972 0 0 0
1070 287 12 0.417 12.461601322400535 5.492071003731159 13.301848200908593 0 0 0
1806 473 13 -0.168263 1.1030024171830812 3.1786533455452988 11.116211809818177 0 0 0
1807 473 14 -0.168263 0.07394440476696419 1.2929936756068436 11.31472952617358 0 0 0
1808 473 15 -0.168263 0.49147434297181436 2.082223473206883 9.338048265112388 0 0 0
1809 473 16 -0.642765 3.215750410852281 1.9211566228793484 9.711452866000064 0 0 0
1810 473 17 0.04591 2.3060469965303985 1.257651539541147 10.580153155871534 0 0 0
1811 473 18 0.405083 0.9516118879433683 1.9695304659674318 10.583495641649087 0 0 0
1812 473 19 0.136466 2.706093041194436 1.238109197178956 11.593793672243587 0 0 0
1813 473 20 0.136466 2.169490983369573 0.22254026845757044 10.273475097418771 0 0 0
1814 473 21 0.423629 2.9465662432791326 2.8434889503706677 9.657522419808142 0 0 0
1179 324 11 -0.834 13.061671546236742 5.85582246692196 9.80051629264643 0 0 0
2124 508 16 -0.642765 6.360539918819731 0.9678130932565738 9.524792587857833 0 0 0
2127 508 19 0.136466 8.124349094999587 0.0324062758857181 10.05513448063708 0 0 0
2129 508 21 0.423629 6.190628672237641 1.6524336580009193 10.170248567360497 0 0 0
2278 525 17 0.04591 5.8912175665447215 3.99393799345127 7.9972483398578005 0 0 0
2280 525 19 0.136466 6.844343753441241 3.599153297941596 8.353145218766791 0 0 0
2281 525 20 0.136466 5.207000828907476 3.9436903258560916 8.845157950759074 0 0 0
1106 299 12 0.417 12.940911224113995 0.1643372127470436 12.72283174834969 0 1 0
204 26 4 -0.139407 9.347239033857306 0.49528129892063444 2.9700875954841295 0 0 0
2287 526 17 0.04591 1.136142062311672 3.956854362046835 14.212630062534787 0 0 0
2288 526 18 0.405083 0.7406641320380563 5.436873141923508 14.198788877322723 0 0 0
469 70 9 1.6 0.6238903242194863 4.132091954980844 0.9525164644458519 1 0 1
2290 526 20 0.136466 2.0451302643132228 3.8024656997404467 13.636174580089262 0 0 0
1136 309 12 0.417 10.105477621040308 3.4684895954884647 8.30277129853395 0 0 0
354 45 2 -0.139407 14.767487579555613 4.26679202003863 12.275675440474517 0 0 0
627 140 11 -0.834 12.913208211323724 2.4227472935551 10.269209761459402 0 0 0
628 140 12 0.417 12.057694515296054 2.775941591285369 9.96027014565116 0 0 0
629 140 12 0.417 13.545699995467421 2.9702437724660107 9.765912749583947 0 0 0
729 174 11 -0.834 13.79536363217167 1.6420507485592437 12.64688860916695 0 0 0
730 174 12 0.417 13.427775929900001 1.9075258715115246 11.763699307999877 0 0 0
731 174 12 0.417 13.921356398919086 2.5225456734098937 13.038518960524435 0 0 0
1135 309 12 0.417 10.647734623899392 2.127414732963364 8.698356399733497 0 0 0
972 255 11 -0.834 10.394559668792986 3.754324085302601 11.802289536226812 0 0 0
973 255 12 0.417 9.837989549952185 4.544354469190425 11.925905803128098 0 0 0
974 255 12 0.417 10.33901578820713 3.605123480174322 10.838599397888501 0 0 0
1068 287 11 -0.834 12.241393484866348 4.618489195358054 13.68489963598786 0 0 0
158 20 6 -0.473736 10.561785021643692 6.984768164253934 14.560707697746137 0 0 0
514 102 12 0.417 14.698129374489536 6.4593788848147895 2.8213397254866974 0 0 0
1639 454 17 0.04591 10.188332222993226 1.836696960826112 14.468205681046108 0 0 0
211 27 3 -0.139407 11.30726643754154 7.113212542924704 0.02889380997172452 0 0 0
1641 454 19 0.136466 10.446560990762645 2.889495331009726 14.38386245799433 0 0 0
1638 454 16 -0.642765 8.77184385558588 1.7018846904827647 14.559700609811005 0 0 0
2285 526 15 -0.168263 1.6665054609293957 6.155506181981645 14.832628233886423 0 0 0
2160 512 16 -0.642765 14.953148097629303 3.8545454942897206 9.057862821086395 0 0 0
1670 457 21 0.423629 14.955370500954418 4.244054030497569 3.771573226487154 0 0 0
1020 271 11 -0.834 0.08092696574005487 0.5906403832556931 3.6832121510425635 0 0 0
1665 457 16 -0.642765 14.873709724719888 3.393525557926282 4.2130907958969255 0 0 0
910 234 12 0.417 9.135977837208188 7.3713422968865 6.500778694497568 0 0 0
609 134 11 -0.834 8.048773914480874 4.319738640749716 20.411799029227698 0 0 0
610 134 12 0.417 7.10187277345349 4.199304468741625 20.264319943684225 0 0 0
611 134 12 0.417 8.354899529611728 4.318900448074823 19.476702672783556 0 0 0
792 195 11 -0.834 4.280205603632724 5.353047218312141 21.25917868636467 0 0 0
793 195 12 0.417 4.580734741810964 4.940896281026032 20.40901926120441 0 0 0
794 195 12 0.417 4.952745706621318 6.096556791986362 21.30238368256198 0 0 0
797 196 12 0.417 0.6553774309857956 1.436286925629366 20.06900431139937 1 0 0
957 250 11 -0.834 3.3943256326735636 4.827702481892337 16.90745935379723 0 0 0
958 250 12 0.417 3.7685624488808687 5.372098255033474 16.1953689751204 0 0 0
959 250 12 0.417 2.7618851128836672 4.2688345083884025 16.413870935562148 0 0 0
1090 294 12 0.417 9.909075284830754 0.9596569229237574 29.44647168403655 0 0 -1
1378 390 12 0.417 9.57412334557137 4.287140653412854 28.709854312777843 0 0 -1
1377 390 11 -0.834 8.912815527928178 3.9541858447361604 29.364953571741037 0 0 -1
1167 320 11 -0.834 1.6995890471807522 4.143566846720295 21.045951545196825 0 0 0
1168 320 12 0.417 1.57671636794788 3.150161231011014 21.02323397323618 0 0 0
1169 320 12 0.417 1.1196171802106247 4.36502955463192 20.28257555009186 0 0 0
1245 346 11 -0.834 6.335724936409236 4.577790220328076 16.16533265017992 0 0 0
1247 346 12 0.417 5.857999015372622 5.419030657394908 16.068125228603268 0 0 0
155 20 3 -0.139407 7.899899099737357 7.260734044379644 16.04708742087557 0 0 0
1213 335 12 0.417 6.205141093580805 2.5356147387520607 29.122383688759403 0 0 -1
238 30 6 -0.473736 4.166622940769043 5.754166589949188 26.086288837250052 0 0 0
1986 493 13 -0.168263 2.385007230587893 2.6133531517029915 18.328914053478854 0 0 0
1987 493 14 -0.168263 3.1081009524916725 0.5842487781008301 18.364353613976576 0 0 0
1988 493 15 -0.168263 3.9297347994508307 1.9804084040665646 16.93172892773101 0 0 0
1989 493 16 -0.642765 4.791108986378839 3.671517011982138 19.104515336483935 0 0 0
1990 493 17 0.04591 4.548440379810207 2.2703999585172965 19.17968261082018 0 0 0
1991 493 18 0.405083 3.4650321212023734 1.8494898227224583 18.172958624743295 0 0 0
1992 493 19 0.136466 4.244271156213081 1.9921852319469406 20.189205324345416 0 0 0
1993 493 20 0.136466 5.468661128409786 1.7253832533002806 18.96547803286486 0 0 0
1994 493 21 0.423629 4.502802684119258 3.947975771986502 18.224251889448475 0 0 0
1091 294 12 0.417 9.092478282595273 2.203243434394674 29.649004069679613 0 0 -1
2291 526 21 0.423629 0.5475181058150368 3.7924986956066804 16.04294245028017 0 0 0
2313 529 16 -0.642765 1.8319667386776672 6.8861038291648216 22.086348139198265 0 0 0
2318 529 21 0.423629 1.2832967368110821 7.298129892709046 22.773150235383593 0 0 0
465 66 9 1.6 11.118915962199146 2.050479497696929 22.172089022059055 0 0 0
1145 312 12 0.417 2.6247937843401408 4.124765994065515 29.453993575350584 0 0 -1
853 215 12 0.417 14.806122652786994 1.7441746976918833 15.89763393223127 0 0 0
1002 265 11 -0.834 9.573802826422096 2.258160090381692 21.312439264214877 0 0 0
1003 265 12 0.417 9.205582470458745 1.7927083583945393 20.51234834661763 0 0 0
1004 265 12 0.417 9.014617363010998 3.0722281924608423 21.19595368144909 0 0 0
1101 298 11 -0.834 8.479741168886802 4.084833825496176 17.685605758639152 0 0 0
1102 298 12 0.417 7.621098326127266 4.275454494262903 17.225864409307274 0 0 0
1103 298 12 0.417 9.05215444904027 4.062590812515052 16.89768147678299 0 0 0
1281 358 11 -0.834 11.989611112327228 3.5899144830197405 21.953328599230918 0 0 0
1283 358 12 0.417 12.726670139951 4.040694751926213 21.493248988550437 0 0 0
1347 380 11 -0.834 12.683356038643828 4.4628285446035525 16.36635648736729 0 0 0
1348 380 12 0.417 11.975048993810708 5.026949645249071 16.726452125439312 0 0 0
1349 380 12 0.417 12.508587449616158 4.508612275141517 15.396634146202754 0 0 0
1425 406 11 -0.834 8.383386255563382 1.5710866437192088 18.967859551901874 0 0 0
1426 406 12 0.417 8.532360412606145 2.3349890979928034 18.373660757154543 0 0 0
1427 406 12 0.417 7.800952633157996 1.0130797464163004 18.399470256434036 0 0 0
1212 335 11 -0.834 6.268082435603891 3.4027412366860457 28.671126875873824 0 0 -1
1508 433 12 0.417 14.290629467617926 4.558213414527276 17.00865910143366 0 0 0
1635 454 13 -0.168263 10.55307061763231 1.9727361725601262 16.783881451725275 0 0 0
1636 454 14 -0.168263 12.225231167352154 1.3348564597449961 15.549052584107889 0 0 0
1637 454 15 -0.168263 10.55341315377182 -0.003493964382984834 15.89271270719841 0 0 0
411 52 3 -0.139407 12.885859918622312 0.7189122955072045 18.55341119115436 0 1 0
1089 294 11 -0.834 9.038741909032035 1.2306238876930031 29.769100099543444 0 0 -1
1640 454 18 0.405083 10.902754810060706 1.2705646342086936 15.704537436611385 0 0 0
865 219 12 0.417 5.3954018473258545 0.3152788386535564 22.021951171164332 0 0 0
854 215 12 0.417 14.36098114875852 1.048693988437134 17.145652526992553 0 0 0
1680 459 13 -0.168263 13.900948099576679 4.640316649262219 19.873779374722904 0 0 0
1681 459 14 -0.168263 14.055488505731573 5.403592003158377 21.88435593804248 0 0 0
795 196 11 -0.834 1.2981119327402708 1.5188606704852128 20.80737511355016 1 0 0
1685 459 18 0.405083 14.746527729173636 5.111384338241715 20.787673533120135 0 0 0
1944 488 16 -0.642765 10.716934504889279 5.980777451164427 17.70025739689363 0 0 0
2085 504 13 -0.168263 9.224715761221605 0.36913855761077125 25.45839102905632 0 1 0
239 30 7 -0.473736 6.02036487637327 6.902496819369589 25.013723609297617 0 0 0
462 63 9 1.6 2.693397135356737 5.247058448165245 22.044963234449696 0 0 0
660 151 11 -0.834 3.8926733787460575 4.717732838397383 28.61771352747303 0 0 0
661 151 12 0.417 3.9310767954998984 5.103759661234177 27.722594305381953 0 0 0
662 151 12 0.417 4.7588926608375415 4.241962991450107 28.65126117613072 0 0 0
819 204 11 -0.834 2.8403717425359813 4.3594919214386545 23.60367564405267 0 0 0
820 204 12 0.417 2.477042405368343 4.495378345499196 24.50271802583512 0 0 0
821 204 12 0.417 3.650687255176354 3.837470529207454 23.861974654403358 0 0 0
864 219 11 -0.834 5.106478019205914 0.6046782325703375 22.8993683459374 0 0 0
2222 519 15 -0.168263 7.414473959078554 4.031538817868352 23.488148599703997 0 0 0
1686 459 19 0.136466 14.695026520983204 7.097452615897101 19.952141368365986 0 0 0
2225 519 18 0.405083 7.41294743414239 3.092231297179708 24.43321198561254 0 0 0
237 30 5 -0.473736 3.855175731972405 6.857263746264373 23.952640064141395 0 0 0
1844 477 15 -0.168263 8.850370492659508 6.775846349717434 28.423586563669907 0 0 0
2258 523 15 -0.168263 14.70231448982322 3.5213224780971557 23.79157648889283 0 0 0
1846 477 17 0.04591 6.58770598189793 6.8338440753652385 28.98806754005432 0 0 0
1848 477 19 0.136466 5.581480051980973 6.846534605084022 28.5673280606186 0 0 0
1849 477 20 0.136466 6.677503077778726 5.9201199506112925 29.579258026986796 0 0 0
233 30 1 1.053176 4.599171803571208 6.788432366246132 25.18056728669932 0 0 0
2004 495 13 -0.168263 1.1549346418570785 2.199764842454566 27.456428432737795 0 0 0
2005 495 14 -0.168263 2.197000702486363 3.565074790707644 26.143407229201028 0 0 0
2006 495 15 -0.168263 3.2870622828340093 2.008917982851786 27.18785154979753 0 0 0
2007 495 16 -0.642765 1.7850541396323312 0.016192517282241532 25.811973503542905 0 0 0
2008 495 17 0.04591 1.9284771547676616 1.3614796257405137 25.381612392806375 0 0 0
2009 495 18 0.405083 2.144870210505737 2.3075855779048253 26.5736793933811 0 0 0
2010 495 19 0.136466 1.0387000612321637 1.6641757408981548 24.825093466465123 0 0 0
2011 495 20 0.136466 2.7705230253213444 1.433745560798936 24.692631079522958 0 0 0
2286 526 16 -0.642765 1.3161456419415123 3.5159353811166687 15.550393364390626 0 0 0
2175 514 13 -0.168263 0.8500682275222028 6.0584210027297045 28.808186631179094 0 0 0
868 220 12 0.417 5.745538630256935 7.414701605978716 15.508053266747575 0 0 0
1144 312 12 0.417 2.0452111951449257 2.7596268655158176 29.383478001590667 0 0 -1
904 232 12 0.417 4.642567378109752 7.121065607936969 17.85866782000314 0 0 0
2223 519 16 -0.642765 4.985385430452536 2.906795149495952 24.310737202926557 0 0 0
2224 519 17 0.04591 6.080771761971914 3.1291881329147557 25.199286633258453 0 0 0
2226 519 19 0.136466 6.074203756787747 2.3837027871381293 25.995375856024992 0 0 0
2227 519 20 0.136466 5.989023561761815 4.087414531109962 25.70854421748592 0 0 0
2228 519 21 0.423629 5.181664546894278 2.092431371691971 23.81987566790309 0 0 0
57 8 1 1.053176 13.319636860744541 2.107698521077167 27.3479897654885 0 0 0
58 8 2 -0.139407 12.020125885797366 1.5005035336765844 29.491375876616896 0 0 0
867 220 11 -0.834 4.927787109905222 7.120687168490493 15.945539789014294 0 0 0
60 8 4 -0.139407 10.865590296419512 1.456988005946667 27.66478188603364 0 0 0
61 8 5 -0.473736 14.518696622178187 1.3642706739154506 27.650810619437614 0 0 0
62 8 6 -0.473736 13.22574616872731 3.398246985035606 27.98707937928031 0 0 0
63 8 7 -0.473736 12.860156954940647 2.0758985898052678 25.97928219650457 0 0 0
64 8 8 -0.013746 12.055214896553185 1.1808958113223533 28.198281721250062 0 0 0
2087 504 15 -0.168263 7.27511861336608 0.37209028856065723 26.374644421997534 0 1 0
2221 519 14 -0.168263 8.43522035147026 3.314036926269424 25.256880578009213 0 0 0
489 90 10 0.8 8.590939153890323 6.602856917257242 22.525022083577287 0 0 0
549 114 11 -0.834 10.770824147948897 5.035800789739086 23.87217198835702 0 0 0
550 114 12 0.417 10.485800836667138 4.73597328452727 24.748925491375303 0 0 0
551 114 12 0.417 11.498346625170523 5.66321193355944 24.144432091581127 0 0 0
552 115 11 -0.834 10.860762412434804 4.808998200461207 27.652779140452445 0 0 0
553 115 12 0.417 11.178723876436624 5.730624498104645 27.56393869565751 0 0 0
554 115 12 0.417 11.696364678354309 4.332357301268069 27.791882126302525 0 0 0
1056 283 11 -0.834 11.161829551113607 1.7084827614872122 23.910567821618297 0 0 0
1057 283 12 0.417 10.692078883916828 1.0298321554920162 24.446501586522523 0 0 0
1058 283 12 0.417 11.851985395032166 1.9225804233130523 24.592945679060133 0 0 0
1282 358 12 0.417 11.721520878143133 4.327673190287911 22.567578574478453 0 0 0
1949 488 21 0.423629 9.812464334878353 5.6804158885879374 17.74989317368331 0 0 0
1476 423 11 -0.834 12.661904438377805 6.626733019720713 24.729855670006447 0 0 0
2220 519 13 -0.168263 7.572828497423918 1.906540502733019 23.84816610524908 0 0 0
1478 423 12 0.417 12.48935209382237 6.907510498242804 25.656359742125865 0 0 0
139 18 3 -0.139407 0.6831140456925167 5.7626148881487556 19.100908978256925 1 0 0
1843 477 14 -0.168263 7.48379008587081 5.75222073750388 27.087846733802458 0 0 0
1847 477 18 0.405083 7.642338006054083 6.814871839815905 27.87302799095712 0 0 0
796 196 12 0.417 1.4921799877014532 0.5928971627017884 20.99290051103053 1 0 0
413 52 5 -0.473736 11.964546944996945 0.7286164461400164 21.25338142288041 0 1 0
903 232 11 -0.834 4.161893541421129 6.758616941078537 18.622838516744263 0 0 0
157 20 5 -0.473736 9.199910204404365 5.045894150929673 15.106748546207067 0 0 0
1214 335 12 0.417 7.220357857915546 3.596101597508871 28.817180795247634 0 0 -1
1477 423 12 0.417 13.571020780959921 6.93168692612364 24.60816429572107 0 0 0
1246 346 12 0.417 6.508358710494453 4.344545871335861 15.236983335965993 0 0 0
2176 514 14 -0.168263 0.42060232145290816 6.885892859966309 26.852940738435365 0 0 0
905 232 12 0.417 3.7222116176571 6.010567180008414 18.171123009553245 0 0 0
1447 413 12 0.417 12.835859576928016 7.409700378752991 27.830448667492128 0 0 0
1943 488 15 -0.168263 10.324825291891194 7.150066924585272 20.20291205244376 0 0 0
1945 488 17 0.04591 10.707179828809755 7.38818528994514 17.89165645986809 0 0 0
1446 413 11 -0.834 12.032488527750424 7.308973537518335 27.285963036088635 0 0 0
1941 488 13 -0.168263 8.596422230326114 7.335046386196121 18.92734702014014 0 0 0
1143 312 11 -0.834 1.8660827310615318 3.597805936615234 29.855626049552548 0 0 -1
1468 420 12 0.417 7.4356815181555636 1.0285212113881201 29.974887983448625 0 0 -1
1326 373 11 -0.834 5.8830464724109 7.443399740166224 21.483941535760987 0 0 0
1111 301 12 0.417 8.538433144885655 -0.0687891660259865 19.648980268126643 0 1 0
225 29 1 1.053176 1.9076138286613484 9.495765582180491 2.6083717871915804 0 0 0
1677 458 19 0.136466 13.900018882099712 8.40545903415185 11.370186685045875 0 0 0
1288 360 12 0.417 13.50629878622311 12.205560348661702 14.298984920676826 0 0 0
288 36 8 -0.013746 0.4098843579112254 14.690778562885274 12.350447102942137 0 0 0
229 29 5 -0.473736 2.0353417895949857 10.706072580374952 1.841095394103903 0 0 0
230 29 6 -0.473736 1.78146175594095 8.279248822768333 1.8383066803102246 0 0 0
231 29 7 -0.473736 2.798385175779308 9.407828048207644 3.737792285071376 0 0 0
374 47 6 -0.473736 14.415900188530827 9.796059171361158 8.570331233896907 0 0 0
1264 352 12 0.417 13.653730232621559 14.12676917477408 3.5380912291835567 0 0 0
475 76 9 1.6 5.984594346996598 9.056154962986485 1.7306138921946141 0 0 0
528 107 11 -0.834 3.976443923378522 12.505372333274826 1.4750533939512696 0 0 0
529 107 12 0.417 3.105803154303524 12.087425611606477 1.6467764088734727 0 0 0
530 107 12 0.417 3.7188852220647264 13.260836752180172 0.9242926614889386 0 0 0
574 122 12 0.417 8.430445458244273 9.40670013930911 1.1897612655257845 0 0 0
624 139 11 -0.834 5.513979992232577 9.710750317158812 3.3984623481389473 0 0 0
625 139 12 0.417 4.641679864902057 9.697382599058928 3.855191058573499 0 0 0
626 139 12 0.417 6.1219466350797305 9.816577472819485 4.182959904718248 0 0 0
633 142 11 -0.834 7.2763886483670825 14.328385774153203 5.8747636939238115 0 0 0
635 142 12 0.417 6.366209348654662 13.941065341699717 5.860217004894168 0 0 0
1473 422 11 -0.834 5.245337453441317 10.273036517565282 0.632678151207586 0 0 0
1726 464 14 -0.168263 1.4454358703168042 8.057902004401127 5.921119618822463 0 0 0
1475 422 12 0.417 4.741613137134489 11.097987792847 0.8649094831022153 0 0 0
575 122 12 0.417 8.372596103589997 9.2328038936569 2.674508244374713 0 0 0
283 36 3 -0.139407 0.5381077522939889 14.338905530186366 11.071664353546652 0 0 0
125 16 5 -0.473736 9.288878994666444 7.938220032912867 3.5804407149954334 0 0 0
154 20 2 -0.139407 8.362625724296501 8.534349801487796 14.363838624896458 0 0 0
209 27 1 1.053176 13.475531350335485 8.475211851664177 0.19107512493117992 0 0 0
212 27 4 -0.139407 11.660948783362254 8.017945679639002 1.9587765621550648 0 0 0
1071 288 11 -0.834 11.026771656970707 14.597662021207118 5.983687735686953 0 0 0
1702 461 17 0.04591 7.265872947656575 9.76782287986378 10.164150999272126 0 0 0
215 27 7 -0.473736 14.380884085127201 8.732655817751137 1.2823062848747513 0 0 0
2208 517 19 0.136466 0.14751208930245446 11.900058718692643 11.615690428938898 1 0 0
369 47 1 1.053176 13.74324404906963 9.06262079447264 7.5275151701543725 0 0 0
1676 458 18 0.405083 11.828356838846188 9.025274479661833 11.25551271169329 0 0 0
1699 461 14 -0.168263 5.84532224530944 7.920902825885879 10.5009230402872 0 0 0
372 47 4 -0.139407 14.284953942674068 8.811220945696498 5.012938062601469 0 0 0
376 47 8 -0.013746 14.865498888071746 9.211494920802368 6.145036837062714 0 0 0
492 93 10 0.8 6.544712474165036 12.842506025159327 2.893362647932764 0 0 0
507 100 11 -0.834 9.815213766531766 10.89143097920348 6.435686836656457 0 0 0
508 100 12 0.417 10.578328518510162 11.497738233947723 6.387791792966813 0 0 0
509 100 12 0.417 10.259231153416573 10.054901460543222 6.647322377875141 0 0 0
573 122 11 -0.834 7.751053774621664 9.399133895550612 1.9236004779287594 0 0 0
597 130 11 -0.834 7.4424476652189036 9.888893894036073 5.271703052930328 0 0 0
598 130 12 0.417 7.631301514649049 9.117313245307386 5.852682468868423 0 0 0
599 130 12 0.417 8.271390798799109 10.378015178195632 5.438268672785891 0 0 0
634 142 12 0.417 7.641020387067568 13.646714058331922 6.506116331289671 0 0 0
894 229 11 -0.834 12.26656540010771 12.273312716122932 6.632342958025751 0 0 0
895 229 12 0.417 12.389466190617648 11.318577793182207 6.819511765542247 0 0 0
896 229 12 0.417 13.08569132967861 12.614439896278837 7.076857267937824 0 0 0
963 252 11 -0.834 14.489493788068549 11.611779647990561 2.1904296812469846 0 0 0
964 252 12 0.417 14.154858316758393 10.707807495200075 2.292604209519651 0 0 0
965 252 12 0.417 14.38061677252121 11.964919858801395 3.104069032873589 0 0 0