LAMMPS data file generated with LigParGen (israel.cabezadevaca@yale.edu)

       6 atoms
       5 bonds
       6 angles
       4 dihedrals
       2 impropers

       6 atom types
       5 bond types
       6 angle types
       4 dihedral types
       2 improper types

   -1.227000    48.773000 xlo xhi
   -0.922000    49.078000 ylo yhi
   -0.070000    49.930000 zlo zhi

Masses

       1     12.011
       2     12.011
       3      1.008
       4      1.008
       5      1.008
       6      1.008

Pair Coeffs

       1      0.076  3.5500000
       2      0.076  3.5500000
       3      0.030  2.5000000
       4      0.030  2.5000000
       5      0.030  2.5000000
       6      0.030  2.5000000

Bond Coeffs

       1   549.0000     1.3400
       2   340.0000     1.0800
       3   340.0000     1.0800
       4   340.0000     1.0800
       5   340.0000     1.0800

Angle Coeffs

       1     35.000    120.000
       2     35.000    120.000
       3     35.000    120.000
       4     35.000    120.000
       5     35.000    117.000
       6     35.000    117.000

Dihedral Coeffs

       1      0.000     14.000      0.000      0.000
       2      0.000     14.000      0.000      0.000
       3      0.000     14.000      0.000      0.000
       4      0.000     14.000      0.000      0.000

Improper Coeffs

       1      2.500      -1       2
       2      2.500      -1       2

Atoms

     1      1      1  -0.250766 -0.66700  0.00000  0.00000
     2      1      2  -0.250766  0.67500  0.00000  0.00000
     3      1      3   0.125383 -1.22700 -0.92200  0.07000
     4      1      4   0.125383 -1.22700  0.92200 -0.07000
     5      1      5   0.125383  1.23400  0.92200 -0.07000
     6      1      6   0.125383  1.23400 -0.92200  0.07000

Bonds

     1      1      2      1
     2      2      3      1
     3      3      4      1
     4      4      5      2
     5      5      6      2

Angles

     1      1      3      1      2
     2      2      4      1      2
     3      3      5      2      1
     4      4      6      2      1
     5      5      4      1      3
     6      6      6      2      5

Dihedrals

     1      1      5      2      1      3
     2      2      6      2      1      3
     3      3      5      2      1      4
     4      4      6      2      1      4

Impropers

     1      1      2      1      3      4
     2      2      1      2      5      6


