LAMMPS data file via write_data, version 22 Jul 2025, timestep = 2000000, units = real

624 atoms
18 atom types
572 bonds
17 bond types
780 angles
24 angle types
832 dihedrals
28 dihedral types
260 impropers
8 improper types

4.329834684457593 24.473000315540983 xlo xhi
4.376989110619343 25.175128889379714 ylo yhi
4.44727040870711 25.5246035912922 zlo zhi

Masses

1 12.011
2 12.011
3 1.008
4 1.008
5 1.008
6 1.008
7 12.011
8 12.011
9 12.011
10 12.011
11 12.011
12 12.011
13 1.008
14 1.008
15 1.008
16 1.008
17 1.008
18 1.008

Pair Coeffs # lj/cut/coul/long

1 0.076 3.55
2 0.076 3.55
3 0.03 2.5
4 0.03 2.5
5 0.03 2.5
6 0.03 2.5
7 0.07 3.55
8 0.07 3.55
9 0.07 3.55
10 0.07 3.55
11 0.07 3.55
12 0.07 3.55
13 0.03 2.42
14 0.03 2.42
15 0.03 2.42
16 0.03 2.42
17 0.03 2.42
18 0.03 2.42

Bond Coeffs # harmonic

1 549 1.34
2 340 1.08
3 340 1.08
4 340 1.08
5 340 1.08
6 469 1.4
7 469 1.4
8 469 1.4
9 469 1.4
10 469 1.4
11 367 1.08
12 367 1.08
13 367 1.08
14 367 1.08
15 367 1.08
16 367 1.08
17 469 1.4

Angle Coeffs # harmonic

1 35 120
2 35 120
3 35 120
4 35 120
5 35 117
6 35 117
7 63 120
8 63 120
9 63 120
10 63 120
11 35 120
12 35 120
13 35 120
14 35 120
15 35 120
16 35 120
17 35 120
18 35 120
19 35 120
20 35 120
21 63 120
22 35 120
23 35 120
24 63 120

Dihedral Coeffs # opls

1 0 14 0 0
2 0 14 0 0
3 0 14 0 0
4 0 14 0 0
5 0 7.25 0 0
6 0 7.25 0 0
7 0 7.25 0 0
8 0 7.25 0 0
9 0 7.25 0 0
10 0 7.25 0 0
11 0 7.25 0 0
12 0 7.25 0 0
13 0 7.25 0 0
14 0 7.25 0 0
15 0 7.25 0 0
16 0 7.25 0 0
17 0 7.25 0 0
18 0 7.25 0 0
19 0 7.25 0 0
20 0 7.25 0 0
21 0 7.25 0 0
22 0 7.25 0 0
23 0 7.25 0 0
24 0 7.25 0 0
25 0 7.25 0 0
26 0 7.25 0 0
27 0 7.25 0 0
28 0 7.25 0 0

Improper Coeffs # cvff

1 2.5 -1 2
2 2.5 -1 2
3 2.5 -1 2
4 2.5 -1 2
5 2.5 -1 2
6 2.5 -1 2
7 2.5 -1 2
8 2.5 -1 2

Atoms # full

47 8 5 0.125383 9.016654032428882 7.847917823333757 4.941387428708365 -295 -58 21
45 8 3 0.125383 7.135453413189547 5.401412949474451 4.871498716178422 -295 -58 21
48 8 6 0.125383 9.124554852249371 6.443979069252877 6.131098161105831 -295 -58 21
516 69 18 0.147243 6.2181284504423795 7.905469535107179 8.929789260085201 -300 -63 21
44 8 2 -0.250766 8.653317279690295 6.85975967612496 5.226806660064007 -295 -58 21
384 58 18 0.147243 8.439052116055173 4.934284588691827 8.280280066453367 -306 -62 27
345 55 15 0.1474 5.307624394336264 9.364413716292514 5.296854648402023 -307 -68 25
185 31 5 0.125383 4.533210272500176 5.979203857360657 5.673334836349151 -296 -67 40
515 69 17 0.147221 6.666319198915599 5.555532413768408 9.504211242445047 -300 -63 21
43 8 1 -0.250766 7.65799375562127 6.314057484344893 4.522771433061823 -295 -58 21
510 69 12 -0.147307 6.262652177829529 7.622408511159591 9.96039980753794 -300 -63 21
513 69 15 0.1474 6.922876845987421 4.907864047330246 11.905544080300023 -300 -63 21
506 69 8 -0.147259 5.973293877397477 8.344398905747326 12.254698665914548 -300 -63 21
509 69 11 -0.147259 6.531008843740134 6.307634714360412 10.301614027940934 -300 -63 21
507 69 9 -0.147296 6.618073320501581 5.944490293236608 11.664534137222395 -300 -63 21
619 78 13 0.147239 9.197352816218238 8.64613038572562 9.800678240371138 -300 -60 25
505 69 7 -0.147307 6.253745420256467 6.995271907867923 12.624198138305012 -300 -63 21
511 69 13 0.147239 6.165772371455899 6.797229263392818 13.684851768966684 -300 -63 21
508 69 10 -0.147296 5.947707137057038 8.64498226434693 10.857144971079686 -300 -63 21
512 69 14 0.147221 5.8126963863865395 9.131933227780463 12.999141204761186 -300 -63 21
80 14 2 -0.250766 6.867599955584953 6.35045035143092 17.461161416216868 -305 -56 22
88 15 4 0.125383 8.417078404008373 7.8347022366812125 20.160693923986067 -306 -62 19
79 14 1 -0.250766 6.39765868397386 7.480111897568144 16.996543659311204 -305 -56 22
84 14 6 0.125383 6.946682128062915 6.3812423768562665 18.519351962682695 -305 -56 22
81 14 3 0.125383 6.116389911418787 8.37676832682914 17.50550570324936 -305 -56 22
83 14 5 0.125383 7.026300448968571 5.4589230627323655 16.800512006787464 -305 -56 22
82 14 4 0.125383 6.184381482331771 7.389930529009095 15.938791351363445 -305 -56 22
561 73 15 0.1474 8.629276663633583 8.227383633202246 15.150081622278815 -305 -61 27
412 61 10 -0.147296 4.5718441636662615 4.714172557069938 21.87056937602048 -305 -60 24
46 8 4 0.125383 7.209277355369365 6.840329653713542 24.72996034565297 -295 -58 20
414 61 12 -0.147307 5.618345405995951 4.474463192230826 22.861062555956593 -305 -60 24
90 15 6 0.125383 5.785142355482685 8.06550407779958 21.866733312103165 -306 -62 19
87 15 3 0.125383 8.045744538361673 6.936696851332893 21.705305910200458 -306 -62 19
420 61 18 0.147243 5.749663938021516 5.273587047202211 23.625917436731093 -305 -60 24
86 15 2 -0.250766 6.468308386052625 8.28107771253254 21.03437902543933 -306 -62 19
85 15 1 -0.250766 7.703337465056164 7.665347093715174 20.970058389092017 -306 -62 19
89 15 5 0.125383 6.2082992910013495 9.052074199667762 20.30441131506275 -306 -62 19
339 55 9 -0.147296 4.788557131972949 9.512017734791014 25.426552319111195 -307 -68 24
77 13 5 0.125383 8.947824980358634 13.796492418299723 6.441997401229085 -302 -60 27
155 26 5 0.125383 8.130700908073894 10.54465910614553 7.0056750622670245 -307 -62 22
151 26 1 -0.250766 6.5275861995178515 11.898742482763588 7.2343981430490265 -307 -62 22
154 26 4 0.125383 6.472394793588106 12.143419610843859 6.136158239885122 -307 -62 22
152 26 2 -0.250766 7.466268135480256 11.060458528642771 7.709761244956948 -307 -62 22
156 26 6 0.125383 7.570604751418279 10.763893504580638 8.694973919929893 -307 -62 22
153 26 3 0.125383 5.74811766091241 12.366956608958438 7.838748038577834 -307 -62 22
78 13 6 0.125383 7.458459108631159 14.727122730828885 6.650390420283929 -302 -60 27
74 13 2 -0.250766 8.504224018755293 14.714109636795456 6.398548749362388 -302 -60 27
259 44 1 -0.250766 8.057314476872369 14.466495185709052 11.051773336767837 -303 -58 32
514 69 16 0.1474 5.670249282861303 9.59599855458534 10.42641537484971 -300 -63 21
263 44 5 0.125383 6.564696563497383 12.91788475566484 10.899176648563119 -303 -58 32
260 44 2 -0.250766 7.629390488281155 13.291131650495416 10.728037545649475 -303 -58 32
41 7 5 0.125383 4.7622290962582206 13.855419665980607 13.575595789272045 -298 -56 29
620 78 14 0.147221 8.825902227424473 9.98841927642115 11.877352085756486 -300 -60 25
264 44 6 0.125383 8.407358879242905 12.686837429686188 10.19002363416914 -303 -58 32
261 44 3 0.125383 9.080350271966822 14.765874254439698 10.924095541994701 -303 -58 32
66 11 6 0.125383 6.745215849280795 11.978508317893148 15.526014058164591 -297 -68 24
288 48 6 0.125383 6.97540143565844 12.65456063662074 19.126200398209868 -303 -63 31
62 11 2 -0.250766 6.82353576494253 12.993777405244423 15.81252002747152 -297 -68 24
63 11 3 0.125383 8.849471430869839 13.07795011586874 15.46422208201827 -297 -68 24
284 48 2 -0.250766 5.943912848328455 12.377995344165887 19.30741979543603 -303 -63 31
61 11 1 -0.250766 8.016209400870379 13.632198175777063 15.773151231726757 -297 -68 24
65 11 5 0.125383 5.92391944465495 13.365556724700026 16.2738476165706 -297 -68 24
64 11 4 0.125383 8.138965863094937 14.631842077086167 16.035512457956496 -297 -68 24
287 48 5 0.125383 5.459102939347341 11.917576699855239 18.433216046240187 -303 -63 31
178 30 4 0.125383 4.597269665843143 10.81589900263254 15.856306502486982 -305 -57 21
258 43 6 0.125383 8.104711651250618 11.35336521929673 21.42512883119447 -310 -59 29
254 43 2 -0.250766 8.940099952571684 12.007647289467304 21.09314241931624 -310 -59 29
283 48 1 -0.250766 5.372552794391691 12.480433700397917 20.517557515389626 -303 -63 31
285 48 3 0.125383 5.880633560604036 12.876942333130145 21.32307297056134 -303 -63 31
257 43 5 0.125383 8.927270770999504 13.041939046493773 21.14401489210128 -310 -59 29
338 55 8 -0.147259 4.815365223610133 10.340643973423797 23.152335787146406 -307 -68 24
344 55 14 0.147221 5.320363823806177 10.831020025713576 22.284976301918853 -307 -68 24
343 55 13 0.147239 6.5316617311528695 10.371257670087841 24.546215891841516 -307 -68 24
337 55 7 -0.147307 5.452598828873495 10.077981596556352 24.37079735285035 -307 -68 24
286 48 4 0.125383 4.356627273038711 12.166052015562945 20.68750062390557 -303 -63 31
391 59 13 0.147239 8.047539272133855 19.180356810452086 7.480460337114662 -300 -54 28
73 13 1 -0.250766 9.269049562681396 15.734984953775436 5.966406558414452 -302 -60 27
387 59 9 -0.147296 6.838683729368221 19.35383736947553 5.699424762069659 -300 -54 28
385 59 7 -0.147307 7.988006591940014 19.598006098626467 6.459125213511206 -300 -54 28
393 59 15 0.1474 6.10058139039094 18.72237239909713 6.108814459012159 -300 -54 28
27 5 3 0.125383 6.517800342978002 16.515774255701754 4.843420051952278 -316 -50 27
75 13 3 0.125383 8.824005849159862 16.68488210949011 5.747271594739222 -302 -60 27
304 51 4 0.125383 5.47229094477382 17.871442897614028 12.076708668591648 -292 -69 24
2 1 2 -0.250766 8.564637969557385 17.171347336766654 13.53018499022046 -314 -58 33
6 1 6 0.125383 7.623841876620427 16.922849562928096 13.19277236965524 -314 -58 33
301 51 1 -0.250766 4.612076363333127 18.272876883768753 11.5131174865457 -292 -69 24
40 7 4 0.125383 4.7468628180012535 15.662496104297675 11.877925076737213 -298 -56 29
262 44 4 0.125383 7.370648851542935 15.109320959511118 11.605085309542229 -303 -58 32
5 1 5 0.125383 8.56931687249089 17.55194416495677 14.548847991453812 -314 -58 33
166 28 4 0.125383 4.750341704883386 16.82610345268116 14.783895074941826 -292 -52 31
168 28 6 0.125383 6.892453994319934 17.543452542093107 16.62742673653847 -292 -52 31
59 10 5 0.125383 4.758461700650158 16.06844482448619 19.376413863167016 -297 -67 25
163 28 1 -0.250766 5.466810101364164 16.66934924840392 15.537926960892744 -292 -52 31
215 36 5 0.125383 8.650613249810895 18.176658849032734 18.839482248461916 -296 -64 28
167 28 5 0.125383 5.80970750046096 18.820550279376793 15.713671420667247 -292 -52 31
164 28 2 -0.250766 6.095200485891495 17.77202455424061 15.99428190636495 -292 -52 31
216 36 6 0.125383 9.179565745947798 19.85696440407823 18.349024583124617 -296 -64 28
165 28 3 0.125383 5.775555658294231 15.635260126042812 15.774064960080944 -292 -52 31
212 36 2 -0.250766 8.667115362903834 19.273355766249352 19.109849967866783 -296 -64 28
293 49 5 0.125383 8.734746955835336 19.612668142418084 15.879065539661456 -312 -55 21
58 10 4 0.125383 7.102656288498806 16.1895263435896 19.67488601553835 -297 -67 25
211 36 1 -0.250766 8.188247272209491 19.782276516506982 20.247877831599283 -296 -64 28
26 5 2 -0.250766 5.634574025179557 15.755960718378637 24.146472042594613 -316 -50 26
60 10 6 0.125383 4.566591722056736 15.194094026640066 21.05632401030285 -297 -67 25
389 59 11 -0.147259 6.723534243050055 19.855938510462636 25.466355266873002 -300 -54 27
395 59 17 0.147221 5.77441965079538 19.723473790404118 24.931529611128692 -300 -54 27
25 5 1 -0.250766 6.533927865562775 16.412505482248864 24.8232237263538 -316 -50 26
28 5 4 0.125383 7.368763424592795 16.8769601380137 24.283539313813 -316 -50 26
9 2 3 0.125383 4.8896515793218125 19.43806780656703 20.774582505238048 -310 -61 36
30 5 6 0.125383 4.873800504247816 15.30100089679331 24.707628637339436 -316 -50 26
29 5 5 0.125383 5.748240246605217 15.539550669664838 23.078301275013633 -316 -50 26
214 36 4 0.125383 7.733063621365157 19.135554176149732 21.056566853611336 -296 -64 28
57 10 3 0.125383 6.947412856254177 15.399055517416716 21.404788785486936 -297 -67 25
55 10 1 -0.250766 6.4879682526014415 15.703880150941735 20.489325795020147 -297 -67 25
56 10 2 -0.250766 5.187260384129242 15.642259839128535 20.272877228827728 -297 -67 25
388 59 10 -0.147296 9.005355766123774 20.86080110589777 4.6047611098742935 -300 -54 28
123 21 3 0.125383 6.125918492865154 22.407146696089637 5.972822089441536 -306 -72 29
386 59 8 -0.147259 9.01906105466014 20.46733477151012 5.9545824528577205 -300 -54 28
122 21 2 -0.250766 4.46363492150786 23.186539321019026 4.842473485713907 -306 -72 29
205 35 1 -0.250766 7.451541047432721 22.18789141016973 9.4258483174968 -303 -60 30
124 21 4 0.125383 4.917257488694857 23.547987006403687 6.860396662940171 -306 -72 29
121 21 1 -0.250766 5.20219981471832 23.01349094555436 5.980182246458463 -306 -72 29
207 35 3 0.125383 7.176528044061221 22.813894290993055 8.579063305113975 -303 -60 30
208 35 4 0.125383 8.544228108746633 22.104656441760444 9.410761208657412 -303 -60 30
53 9 5 0.125383 4.955152557956699 24.82419015153488 10.818794157884403 -303 -64 28
209 35 5 0.125383 7.031886222897918 20.634143024681233 10.917636388142132 -303 -60 30
50 9 2 -0.250766 4.827431451461529 23.93361118669266 11.519907778494696 -303 -64 28
49 9 1 -0.250766 5.768700835450027 23.27757125396365 12.184724422337874 -303 -64 28
52 9 4 0.125383 6.745836084424455 23.695488778758243 12.174507860623148 -303 -64 28
51 9 3 0.125383 5.702007067966031 22.405107937909634 12.885654639471216 -303 -64 28
206 35 2 -0.250766 6.690471687835157 21.39961994806772 10.168994835095514 -303 -60 30
294 49 6 0.125383 9.257175297626384 20.460267868909494 14.25876340611455 -312 -55 21
305 51 5 0.125383 4.502850504086736 20.004134981274266 12.865080811851074 -292 -69 24
210 35 6 0.125383 5.5855356264570295 21.60524483559223 10.041658793825324 -303 -60 30
415 61 13 0.147239 5.179562313642884 22.710007696905787 19.884991034632066 -305 -61 24
282 47 6 0.125383 6.910148813554245 20.67431252776577 17.28511905798046 -306 -58 20
490 67 16 0.1474 8.283070234515245 24.349776334470537 17.332281334148846 -310 -57 23
277 47 1 -0.250766 6.41751262412839 22.499170454122606 16.158870825888588 -306 -58 20
278 47 2 -0.250766 6.854836512689345 21.718831633292506 17.183918550119348 -306 -58 20
280 47 4 0.125383 6.436636010081993 23.576106133613305 16.28205457350675 -306 -58 20
279 47 3 0.125383 5.9610190314580915 22.036168380771436 15.32660458090141 -306 -58 20
281 47 5 0.125383 7.372380297284561 22.30113171047449 17.97265924337493 -306 -58 20
482 67 8 -0.147259 9.054191081664985 24.326423518678663 19.372210343892675 -310 -57 23
488 67 14 0.147221 8.332251082101466 23.571414386180628 19.709915536604747 -310 -57 23
484 67 10 -0.147296 8.978005202189594 24.74580705943269 18.027343396080376 -310 -57 23
10 2 4 0.125383 5.675175076661132 20.431906084610247 19.42538000824573 -310 -61 36
7 2 1 -0.250766 4.779812380130115 20.019379353251473 19.85405742202379 -310 -61 36
396 59 18 0.147243 7.702126026049239 21.017733541169207 23.961780608244208 -300 -54 27
417 61 15 0.1474 6.747940221408507 22.280478653807055 21.785548106552078 -305 -61 24
213 36 3 0.125383 8.305993568074475 20.834956638298483 20.4652686852925 -296 -64 28
419 61 17 0.147221 7.164023168508287 23.810015004209557 23.567895411494842 -305 -61 24
411 61 9 -0.147296 6.111528271655771 23.171929958801012 21.780259977357307 -305 -61 24
390 59 12 -0.147307 7.794354780331404 20.626837625830575 24.933082191348777 -300 -54 27
413 61 11 -0.147259 6.380689441153798 24.033761145883744 22.826210826521844 -305 -61 24
409 61 7 -0.147307 5.291494306829705 23.4459402321987 20.699965634851687 -305 -61 24
410 61 8 -0.147259 4.458726217858897 24.64141880667485 20.741633775229964 -305 -61 24
126 21 6 0.125383 4.77449984164633 22.632864240389722 25.013357625501033 -306 -72 28
375 58 9 -0.147296 11.800958281314747 4.8950970796175355 9.290574057324154 -306 -62 27
621 78 15 0.1474 11.568380599874223 8.974218110103239 8.632411349006208 -300 -60 25
309 52 3 0.125383 11.855808169253265 7.95935976387216 6.887030089851266 -307 -55 30
377 58 11 -0.147259 10.3791817430259 5.174883229003263 9.331174645917693 -306 -62 27
378 58 12 -0.147307 9.550584675942579 4.758809496870578 8.262896588760759 -306 -62 27
310 52 4 0.125383 11.69459724073234 6.165770754388839 6.309169851851692 -307 -55 30
307 52 1 -0.250766 11.876258835907793 7.193346595923425 6.107676162846159 -307 -55 30
308 52 2 -0.250766 12.001644693563982 7.530578307795957 4.831338386814037 -307 -55 30
615 78 9 -0.147296 11.203677003128432 9.357329159237755 9.58642313705823 -300 -60 25
613 78 7 -0.147307 9.940004227494022 9.258522881127554 10.171589125447511 -300 -60 25
564 73 18 0.147243 12.72531766443284 8.055405196364324 13.786775064366632 -305 -61 27
269 45 5 0.125383 10.418007844047647 5.262963781012497 13.825706987207633 -307 -69 26
383 58 17 0.147221 9.916412310257657 5.7242104590315845 10.134491488625128 -306 -62 27
381 58 15 0.1474 12.461723377598476 5.415875340667705 9.955565526995096 -306 -62 27
268 45 4 0.125383 12.00727510202288 5.0766122719805775 11.986559362420415 -307 -69 26
563 73 17 0.147221 10.29558507366596 7.921444168949045 13.299069586217861 -305 -61 27
558 73 12 -0.147307 12.00970391080522 8.158250938292426 14.522527978370693 -305 -61 27
557 73 11 -0.147259 10.63977694915363 8.1286464418775 14.324470914966865 -305 -61 27
553 73 7 -0.147307 10.067022561504562 9.02586488325415 16.473992270210687 -305 -61 27
548 72 14 0.147221 13.223875704258745 8.875485915765696 19.391801667556432 -299 -67 27
483 67 9 -0.147296 10.823028055102728 5.158434690007193 19.871277015539448 -310 -56 23
491 67 17 0.147221 11.365850924665331 6.430420851004231 18.084677299070574 -310 -56 23
559 73 13 0.147239 9.406287824230517 9.408786674980403 17.237031902481892 -305 -61 27
492 67 18 0.147243 9.785769194723018 5.207621606928046 16.65635086011803 -310 -56 23
485 67 11 -0.147259 10.821052474250221 5.580844114011318 18.512365958642793 -310 -56 23
555 73 9 -0.147296 9.674498495027501 8.447387810569774 15.256952861521663 -305 -61 27
556 73 10 -0.147296 12.469625564564595 8.745461879655036 15.679679755324736 -305 -61 27
486 67 12 -0.147307 9.820641076352027 4.992989906485602 17.686570435268436 -310 -56 23
554 73 8 -0.147259 11.481414169229332 9.160326856653148 16.685507846125255 -305 -61 27
547 72 13 0.147239 13.780298319689516 6.531764376531717 18.345320589696215 -299 -67 27
562 73 16 0.1474 13.518574516551002 8.964115702345008 15.730774423867748 -305 -61 27
542 72 8 -0.147259 14.27575965727359 8.411083619030345 19.39590998302981 -299 -67 27
489 67 15 0.1474 11.434504004113482 5.495732587731537 20.648334820978548 -310 -56 23
499 68 13 0.147239 13.989376955253851 5.644730771667165 24.724175370620475 -316 -64 22
311 52 5 0.125383 11.912034741702794 6.778309592435267 25.15038230326679 -307 -55 29
298 50 4 0.125383 12.401370749981817 4.486497879300097 23.22763637285183 -313 -66 30
312 52 6 0.125383 12.019240741893206 8.476691465991737 25.495761620254427 -307 -55 29
623 78 17 0.147221 13.255054888451017 10.209035397507593 9.553635954256775 -300 -60 25
576 74 18 0.147243 12.71503284665192 10.73556991560223 5.691996670573077 -308 -60 27
568 74 10 -0.147296 13.50786991392176 12.084988934297465 7.141042602343205 -308 -60 27
570 74 12 -0.147307 13.559199952751372 10.9796520113324 6.292870448553465 -308 -60 27
574 74 16 0.1474 12.62705763650915 12.73268417603569 7.149490974069696 -308 -60 27
622 78 16 0.1474 10.630545061423515 11.357275432661853 12.773648185443811 -300 -60 25
616 78 10 -0.147296 10.838838530148767 10.821194555630905 11.86416901871252 -300 -60 25
525 70 15 0.1474 11.616254580273273 14.735808076284908 11.021253167483332 -308 -59 25
237 40 3 0.125383 11.489618415929163 12.742587715332343 14.74341249624922 -305 -59 27
614 78 8 -0.147259 9.743602007169082 10.023240063046325 11.35158937392824 -300 -60 25
624 78 18 0.147243 12.874145159651272 11.465405857465452 11.62608966872764 -300 -60 25
618 78 12 -0.147307 12.092883695409848 10.870216571597263 11.273313993131014 -300 -60 25
617 78 11 -0.147259 12.277120477741121 10.134566279031379 10.12688855433383 -300 -60 25
238 40 4 0.125383 13.282447079424266 13.46877306192056 14.556656432015131 -305 -59 27
236 40 2 -0.250766 12.880606062117076 12.516468064621554 16.317970067287895 -305 -59 27
235 40 1 -0.250766 12.535636010097539 12.965232738648373 15.081255047529728 -305 -59 27
239 40 5 0.125383 13.890427452299413 12.506270539414267 16.697979468371752 -305 -59 27
240 40 6 0.125383 12.057946371204416 11.997161481581426 16.87403245673512 -305 -59 27
560 73 14 0.147221 11.81636064693862 9.614977365249912 17.68527892049556 -305 -61 27
255 43 3 0.125383 10.224413920650044 10.378524045541143 20.483621065589148 -310 -59 29
138 23 6 0.125383 11.820447662204378 11.411156505701756 24.814778041045955 -297 -59 32
95 16 5 0.125383 9.622769226641532 14.512321441716796 22.57630879135832 -297 -62 25
234 39 6 0.125383 13.410803802631603 14.349361703459856 25.018335416552393 -314 -58 28
137 23 5 0.125383 11.711694532102385 10.770430220816403 22.929705959797687 -297 -59 32
92 16 2 -0.250766 10.672436499917051 14.707507008218808 22.86984225608238 -297 -62 25
134 23 2 -0.250766 12.190965097280408 10.890015314822273 23.851749656581454 -297 -59 32
135 23 3 0.125383 14.216160820744749 10.518308654668145 24.54527770121796 -297 -59 32
96 16 6 0.125383 11.069873314833199 14.725025902803628 23.864476857310404 -297 -62 25
253 43 1 -0.250766 10.040265769550551 11.418473179507217 20.57416684072226 -310 -59 29
133 23 1 -0.250766 13.426723012579345 10.39321691679675 23.782067510330585 -297 -59 32
94 16 4 0.125383 11.312775174519585 14.580754637345386 20.849711373488603 -297 -62 25
91 16 1 -0.250766 11.579288746637436 14.636254735600426 21.91647586809709 -297 -62 25
136 23 4 0.125383 13.69209911873615 9.830751137980032 22.890572647691453 -297 -59 32
256 43 4 0.125383 10.867784020745404 12.122484398324469 20.29919292890773 -310 -59 29
527 70 17 0.147221 12.059359016422263 15.284146713512142 8.675101230648645 -308 -59 25
76 13 4 0.125383 10.402581508775567 15.66495567088954 5.856524565986726 -302 -60 27
528 70 18 0.147243 13.451416079852647 17.145188824122474 8.043498995192685 -308 -59 25
521 70 11 -0.147259 12.573979416411301 15.825539913103409 9.437112442098709 -308 -59 25
522 70 12 -0.147307 13.44040670406672 16.889652782340605 9.080376300066831 -308 -59 25
523 70 13 0.147239 12.991099648060443 15.908478474310503 12.825758604902871 -308 -59 25
517 70 7 -0.147307 13.124493274837672 16.13584430766012 11.76549462086206 -308 -59 25
4 1 4 0.125383 10.581002181352984 17.673063295643313 13.277605040770197 -314 -58 33
520 70 10 -0.147296 14.178786917919785 17.527272177303445 10.084208880252913 -308 -59 25
519 70 9 -0.147296 12.380501412224573 15.44980900934035 10.784507085107284 -308 -59 25
111 19 3 0.125383 14.205360615797746 18.30133728538854 14.911098941624525 -309 -68 19
518 70 8 -0.147259 14.053661863225535 17.117869987391753 11.455760942834534 -308 -59 25
1 1 1 -0.250766 9.698829802547175 17.286336242350657 12.85942098713497 -314 -58 33
3 1 3 0.125383 9.642264763399519 17.0483424225482 11.739512403949071 -314 -58 33
24 4 6 0.125383 11.202989321697055 19.66225385614327 10.518196350126063 -301 -57 26
115 20 1 -0.250766 10.975872530365393 16.248880639991427 17.49614493761966 -300 -58 14
110 19 2 -0.250766 13.964932292184901 16.287330389031904 15.501162700995787 -309 -68 19
119 20 5 0.125383 11.697647651529202 17.684356962170625 18.777120580487253 -300 -58 14
112 19 4 0.125383 12.520959121831973 17.496963889292818 15.050545478903928 -309 -68 19
116 20 2 -0.250766 11.752435555215728 16.66753019788496 18.497655090531158 -300 -58 14
120 20 6 0.125383 12.49337876429822 16.05308277550792 18.979160160795697 -300 -58 14
292 49 4 0.125383 11.095657675431358 19.48306114358999 16.633028003815078 -312 -55 21
118 20 4 0.125383 10.2101159190749 16.94487132358836 17.214857074379868 -300 -58 14
117 20 3 0.125383 11.023755343676523 15.246577134176396 17.106122196984156 -300 -58 14
113 19 5 0.125383 13.214327504518188 15.564923588869874 15.753379212152664 -309 -68 19
289 49 1 -0.250766 10.770631071431477 19.95914431848874 15.699663587251433 -312 -55 21
109 19 1 -0.250766 13.536553066759785 17.484553953272876 15.148783061915548 -309 -68 19
428 62 14 0.147221 13.09003548391519 17.90926935157217 21.12723922149608 -308 -64 24
427 62 13 0.147239 10.907352738048973 17.61049163109436 22.335939787427538 -308 -64 24
421 62 7 -0.147307 11.15447308005575 18.53198886482994 21.990725556575587 -308 -64 24
140 24 2 -0.250766 13.797770584298176 19.053551502407156 24.87373261524196 -307 -56 28
422 62 8 -0.147259 12.368539355612386 18.752050406323487 21.265938547716587 -308 -64 24
429 62 15 0.1474 9.534355235632033 19.361032236573266 22.952681923976833 -308 -64 24
93 16 3 0.125383 12.574610755955796 14.85482951673724 22.059498707530143 -297 -62 25
423 62 9 -0.147296 10.439459059441237 19.606495615160437 22.365456366084405 -308 -64 24
144 24 6 0.125383 13.444588480933952 18.732487623061395 23.934923417137025 -307 -56 28
143 24 5 0.125383 13.157057993826468 19.791188191348443 25.2965025875604 -307 -56 28
202 34 4 0.125383 12.371157260705008 21.029668908078637 8.29054079382074 -302 -64 20
200 34 2 -0.250766 14.297174782380992 21.051427686675062 7.3955484658884725 -302 -64 20
376 58 10 -0.147296 10.071322826118214 24.62079997624662 7.30498788561572 -306 -63 27
382 58 16 0.1474 9.489340088625916 24.2455600882112 6.499761733805417 -306 -63 27
374 58 8 -0.147259 11.39268713564276 24.245923973159467 7.365845347734983 -306 -63 27
201 34 3 0.125383 12.367244010906457 21.2369177586572 6.534560685591758 -302 -64 20
373 58 7 -0.147307 12.272624288723613 24.75651740348751 8.30251580179779 -306 -63 27
380 58 14 0.147221 11.704516802671785 23.641187887512476 6.594840480053226 -306 -63 27
379 58 13 0.147239 13.346190672217231 24.411860187588516 8.355169451531967 -306 -63 27
199 34 1 -0.250766 12.944184593701896 21.04368201067015 7.383902001857031 -302 -64 20
392 59 14 0.147221 9.81532102394356 20.70506242937998 6.683563310092035 -300 -54 28
299 50 5 0.125383 11.734347194468276 25.058560991348006 4.609043491921263 -313 -67 31
300 50 6 0.125383 11.932218007316708 23.283640523693805 4.4545197853759255 -313 -67 31
20 4 2 -0.250766 10.732516762418173 20.58791973700585 10.714229126246643 -301 -57 26
21 4 3 0.125383 12.48035591194571 21.825437975429804 10.624652033487381 -301 -57 26
19 4 1 -0.250766 11.454704889528395 21.724698100459733 10.785518304521034 -301 -57 26
22 4 4 0.125383 11.007409020174569 22.642710318126724 11.109842515756792 -301 -57 26
23 4 5 0.125383 9.720613983174692 20.401350288531944 10.815717133574921 -301 -57 26
191 32 5 0.125383 13.94730975329199 23.30877941525601 14.956919662249367 -305 -61 33
266 45 2 -0.250766 10.947010685182617 25.12719764439722 13.681608520086996 -307 -70 26
270 45 6 0.125383 10.90474970426997 24.484542289954003 14.454882958186534 -307 -70 26
267 45 3 0.125383 12.415117370340324 24.12100240703686 12.394749124961427 -307 -70 26
265 45 1 -0.250766 11.8639403723155 25.01756856447369 12.662578421775898 -307 -70 26
357 56 15 0.1474 14.04001764233939 22.96583329607569 19.38901332538526 -303 -53 28
290 49 2 -0.250766 9.489139066916906 20.054970564419197 15.25945032306517 -312 -55 21
188 32 2 -0.250766 14.028813598180426 22.62931135189056 15.77067047206165 -305 -61 33
190 32 4 0.125383 12.118242124629905 23.038816320066417 16.48805504550726 -305 -61 33
187 32 1 -0.250766 13.047822392051252 22.40467420009312 16.566372650167164 -305 -61 33
189 32 3 0.125383 13.273089826069151 21.84585709616937 17.420677747919978 -305 -61 33
291 49 3 0.125383 11.605229472385044 20.21074011243894 15.018914006108917 -312 -55 21
481 67 7 -0.147307 9.970776154696207 24.91325491638887 20.240465515309076 -310 -57 23
424 62 10 -0.147296 12.85169932171708 20.062457472970262 21.050778721862454 -308 -64 24
487 67 13 0.147239 10.034403966162989 24.578974193309616 21.271039175621684 -310 -57 23
426 62 12 -0.147307 12.111084124341662 21.14224763600034 21.552492845647766 -308 -64 24
297 50 3 0.125383 12.709619781922372 23.523119536031164 23.224994543292855 -313 -67 30
430 62 16 0.1474 13.825960657324112 20.20219594516651 20.659605120182675 -308 -64 24
432 62 18 0.147243 12.4463263229035 22.127425212023972 21.309041095562048 -308 -64 24
431 62 17 0.147221 10.283492824601256 21.72934012968212 22.585229759235634 -308 -64 24
425 62 11 -0.147259 10.912959315721372 20.927506818010443 22.21293234352677 -308 -64 24
296 50 2 -0.250766 11.934151931548914 24.24322266462158 25.03387238404997 -313 -67 30
295 50 1 -0.250766 12.338705503967685 24.343384110391497 23.77595119222425 -313 -67 30
252 42 6 0.125383 14.282540103309001 22.028953202150102 25.44862103083008 -303 -51 32
394 59 16 0.1474 9.80535261595118 21.43391539159741 25.323364519831333 -300 -54 27
575 74 17 0.147221 14.889835003809523 9.281936552421957 5.807878725452856 -308 -60 27
441 63 15 0.1474 17.788632528097338 8.881048156997272 4.477150038006115 -302 -53 20
496 68 10 -0.147296 17.296213532222406 5.444761198436133 4.929467324615819 -316 -64 23
368 57 14 0.147221 15.023436876914472 5.861153830722125 8.955734161647483 -305 -54 31
502 68 16 0.1474 17.927281238865852 5.402244071552459 5.809695850685057 -316 -64 23
500 68 14 0.147221 15.24086895049353 5.367942156368412 5.899353390220555 -316 -64 23
494 68 8 -0.147259 15.885448222349131 5.440192958446958 4.9863759759275466 -316 -64 23
370 57 16 0.1474 16.09382043016972 8.021955133325383 9.287628331529152 -305 -54 31
361 57 7 -0.147307 14.948181571450966 5.300943167675759 11.004916494599813 -305 -54 31
366 57 12 -0.147307 16.131010359401305 7.799355577400321 11.487692500309363 -305 -54 31
369 57 15 0.1474 14.745943855465372 5.057550045076615 13.074545538305125 -305 -54 31
363 57 9 -0.147296 15.117799840767539 5.733812633767106 12.300137851165676 -305 -54 31
371 57 17 0.147221 15.879945748500418 7.271928598091576 13.560659577947392 -305 -54 31
473 66 11 -0.147259 19.18712551929813 5.049108185725325 10.08548008109381 -306 -61 21
365 57 11 -0.147259 15.736064450505546 6.936142430057983 12.5606521674857 -305 -54 31
372 57 18 0.147243 16.601830885566656 8.683194021452582 11.732353126426005 -305 -54 31
364 57 10 -0.147296 15.834140014889162 7.450545755747056 10.150150225766435 -305 -54 31
362 57 8 -0.147259 15.297873629954685 6.194543125457912 9.928684155265044 -305 -54 31
584 75 14 0.147221 16.337070157369553 9.27147380226111 13.93547679282443 -307 -59 17
479 66 17 0.147221 18.681466876112758 5.69925317237517 10.818338355960408 -306 -61 21
539 71 17 0.147221 19.249198639508922 7.148272137242429 13.439813117720204 -298 -51 28