LAMMPS data file via write_data, version 29 Aug 2024, timestep = 1658, units = real

624 atoms
18 atom types
572 bonds
17 bond types
780 angles
24 angle types
832 dihedrals
28 dihedral types
260 impropers
8 improper types

0.052536 28.750299 xlo xhi
-0.03939 29.591508 ylo yhi
-0.028394 30.000268 zlo zhi

Masses

1 12.011
2 12.011
3 1.008
4 1.008
5 1.008
6 1.008
7 12.011
8 12.011
9 12.011
10 12.011
11 12.011
12 12.011
13 1.008
14 1.008
15 1.008
16 1.008
17 1.008
18 1.008

Pair Coeffs # lj/cut/coul/long

1 0.076 3.55
2 0.076 3.55
3 0.03 2.5
4 0.03 2.5
5 0.03 2.5
6 0.03 2.5
7 0.07 3.55
8 0.07 3.55
9 0.07 3.55
10 0.07 3.55
11 0.07 3.55
12 0.07 3.55
13 0.03 2.42
14 0.03 2.42
15 0.03 2.42
16 0.03 2.42
17 0.03 2.42
18 0.03 2.42

Bond Coeffs # harmonic

1 549 1.34
2 340 1.08
3 340 1.08
4 340 1.08
5 340 1.08
6 469 1.4
7 469 1.4
8 469 1.4
9 469 1.4
10 469 1.4
11 367 1.08
12 367 1.08
13 367 1.08
14 367 1.08
15 367 1.08
16 367 1.08
17 469 1.4

Angle Coeffs # harmonic

1 35 120
2 35 120
3 35 120
4 35 120
5 35 117
6 35 117
7 63 120
8 63 120
9 63 120
10 63 120
11 35 120
12 35 120
13 35 120
14 35 120
15 35 120
16 35 120
17 35 120
18 35 120
19 35 120
20 35 120
21 63 120
22 35 120
23 35 120
24 63 120

Dihedral Coeffs # opls

1 0 14 0 0
2 0 14 0 0
3 0 14 0 0
4 0 14 0 0
5 0 7.25 0 0
6 0 7.25 0 0
7 0 7.25 0 0
8 0 7.25 0 0
9 0 7.25 0 0
10 0 7.25 0 0
11 0 7.25 0 0
12 0 7.25 0 0
13 0 7.25 0 0
14 0 7.25 0 0
15 0 7.25 0 0
16 0 7.25 0 0
17 0 7.25 0 0
18 0 7.25 0 0
19 0 7.25 0 0
20 0 7.25 0 0
21 0 7.25 0 0
22 0 7.25 0 0
23 0 7.25 0 0
24 0 7.25 0 0
25 0 7.25 0 0
26 0 7.25 0 0
27 0 7.25 0 0
28 0 7.25 0 0

Improper Coeffs # cvff

1 2.5 -1 2
2 2.5 -1 2
3 2.5 -1 2
4 2.5 -1 2
5 2.5 -1 2
6 2.5 -1 2
7 2.5 -1 2
8 2.5 -1 2

Atoms # full

49 9 1 -0.250766 6.473082078602033 2.351201369233878 13.138640823462016 0 1 0
405 60 15 0.1474 6.505987025457944 6.261819799407737 14.678132664913178 0 0 0
50 9 2 -0.250766 5.726096125427011 3.4455752941790823 12.930188907025673 0 1 0
53 9 5 0.125383 5.891100768027094 4.348759462532893 13.497571993507608 0 1 0
403 60 13 0.147239 6.314600867870028 7.017765733880936 12.30406746276932 0 0 0
54 9 6 0.125383 4.9382926487505605 3.4543991679632193 12.190100717772447 0 1 0
399 60 9 -0.147296 6.994651174702869 7.168678765087243 14.35397991869758 0 0 0
51 9 3 0.125383 6.309489355628997 1.4456787773832935 12.571782953633388 0 1 0
61 11 1 -0.250766 6.555292516965784 4.378131171626669 16.91430639634193 0 1 0
63 11 3 0.125383 6.08485258458981 4.83243508838196 17.774795530192527 0 1 0
64 11 4 0.125383 5.920923955032652 3.848724463951767 16.216858863280393 0 1 0
469 66 7 -0.147307 3.81092821648304 11.39553136983766 13.483341599131757 0 0 0
273 46 3 0.125383 4.868402414056317 9.39285354560359 11.488751758555116 0 0 0
471 66 9 -0.147296 3.619074632866818 12.785236951388573 13.35480872871096 0 0 0
472 66 10 -0.147296 5.800081003804909 11.795572374453677 14.836271196069573 0 0 0
473 66 11 -0.147259 4.516335810750056 13.67971664981919 13.96962991581637 0 0 0
474 66 12 -0.147307 5.6082428096764 13.184111956770384 14.708241123361338 0 0 0
475 66 13 0.147239 3.1221095307909774 10.710358452699635 13.009904135328433 0 0 0
108 18 6 0.125383 6.928612985559641 13.360071069578662 11.615591708093518 0 0 0
477 66 15 0.1474 2.7773836745195646 13.166189177706901 12.793268532682701 0 0 0
276 46 6 0.125383 4.464715840329546 11.442157097821578 10.205380922174822 0 0 0
107 18 5 0.125383 6.571701416780542 11.563923311334799 11.79572736632797 0 0 0
274 46 4 0.125383 3.8929933624277586 8.418323782564192 10.254495608840946 0 0 0
244 41 4 0.125383 6.432388675526547 8.405659969693511 8.636190518410961 0 0 0
104 18 2 -0.250766 7.197928148147969 12.341068287107385 11.382801196989801 0 0 0
272 46 2 -0.250766 4.066811722237881 10.492162312592482 9.875804312652374 0 0 0
275 46 5 0.125383 3.487360227922071 10.479594660605759 8.963764536561804 0 0 0
470 66 8 -0.147259 4.902810591901298 10.900214113315105 14.222960626210224 0 0 0
476 66 14 0.147221 5.062973746025294 9.834593504246154 14.316487025754762 0 0 0
271 46 1 -0.250766 4.287386845765732 9.370799231118621 10.577649872245512 0 0 0
397 60 7 -0.147307 6.8850278302141374 7.596808060906932 13.016372260740411 0 0 0
479 66 17 0.147221 4.362883112202384 14.745705342504793 13.880375130809671 0 0 0
245 41 5 0.125383 6.804020445870965 10.556691646092414 7.497827591970811 0 0 0
439 63 13 0.147239 1.668282977439609 13.592864654984245 22.080750620630525 0 0 0
478 66 16 0.1474 6.6402366947056315 11.416068830748523 15.399529553184633 0 0 0
355 56 13 0.147239 1.4993668149885113 12.407319124315977 15.27755933992661 0 0 0
441 63 15 0.1474 1.658518623323733 12.064017201110836 20.11223980235633 0 0 0
349 56 7 -0.147307 0.7375132753778209 13.174237206119399 15.253063374492898 0 0 0
443 63 17 0.147221 0.3522646248918894 12.669216739164371 18.07578767163152 0 0 0
437 63 11 -0.147259 0.35157907719154907 13.321883959380113 18.937570182553205 0 0 0
433 63 7 -0.147307 1.0977840267016712 13.849280367748321 21.199236163426978 0 0 0
435 63 9 -0.147296 1.0924417418728798 12.984344359525792 20.087228538499925 0 0 0
185 31 5 0.125383 4.821936074404117 14.608715323299771 20.99245679194777 0 0 0
350 56 8 -0.147259 1.1031641877822023 14.523554393998683 15.422537266835045 0 0 0
537 71 15 0.1474 5.007749558273886 14.423013137797554 17.426986568077623 0 0 0
480 66 18 0.147243 6.303102783007372 13.866873262329694 15.177064560132207 0 0 0
539 71 17 0.147221 2.970663702418876 14.74978509376865 18.82884282712805 0 0 0
184 31 4 0.125383 6.1348118539100644 14.259838589400326 23.051060178327646 0 0 0
224 38 2 -0.250766 6.263212851327719 18.416677853333294 9.496534862984646 0 0 0
227 38 5 0.125383 6.216655958613136 17.475218535465643 10.0251725293021 0 0 0
228 38 6 0.125383 5.395277072916967 19.05889482129807 9.534494247661502 0 0 0
535 71 13 0.147239 5.709100502418542 16.19536268332391 15.827708523140679 0 0 0
352 56 10 -0.147296 0.11917261271664381 15.530488546591537 15.394602029438737 0 0 0
540 71 18 0.147243 1.6486170641025588 16.831604149428575 18.63229039937129 0 0 0
182 31 2 -0.250766 5.810091516955707 15.02950102993926 21.106471421852465 0 0 0
358 56 16 0.1474 0.40729062949403844 16.562844780194073 15.532233668672454 0 0 0
440 63 14 0.147221 0.3612241833533248 15.71064099132694 22.016813032702892 0 0 0
434 63 8 -0.147259 0.3575074603652293 15.047845387835713 21.163073381984482 0 0 0
533 71 11 -0.147259 3.2863367440055367 15.519757286097045 18.138706406059303 0 0 0
529 71 7 -0.147307 4.830848654563807 16.340276334909547 16.43936918607874 0 0 0
531 71 9 -0.147296 4.435756657935075 15.336933467174152 17.34593614746953 0 0 0
532 71 10 -0.147296 2.928038942150893 17.707378049852146 17.118908029139213 0 0 0
534 71 12 -0.147307 2.5332597246268347 16.703697277880263 18.02517805325653 0 0 0
536 71 14 0.147221 4.380751304705218 18.293660847798563 15.628879827963164 0 0 0
538 71 16 0.1474 2.3475788768525896 18.614670637556138 17.032732256620317 0 0 0
186 31 6 0.125383 6.199359042134532 15.614883839341303 20.28433425860427 0 0 0
530 71 8 -0.147259 4.077735169768415 17.525223900675087 16.325349122577606 0 0 0
181 31 1 -0.250766 6.524995771875474 14.840863984705406 22.226532493003944 0 0 0
356 56 14 0.147221 2.140425768306256 14.786791565347762 15.582221253346718 0 0 0
256 43 4 0.125383 14.379937830622533 6.138633349349661 0.5741010697069026 0 0 1
253 43 1 -0.250766 14.002001090203033 7.01760882069764 1.0765191888200878 0 0 1
599 76 17 0.147221 9.661675342113865 6.915804350445873 0.5063766241952088 0 0 1
619 78 13 0.147239 11.013639874186696 6.976006807743456 5.152559961175856 0 0 0
109 19 1 -0.250766 9.475130224940544 4.502391461485645 12.99848734059273 0 0 0
417 61 15 0.1474 11.154003946074402 6.544711324141629 7.948816644638844 0 0 0
110 19 2 -0.250766 10.540034844338614 4.758693081612284 13.772370966287717 0 0 0
413 61 11 -0.147259 10.58578201074644 6.700580273823726 10.031085873510408 0 0 0
419 61 17 0.147221 10.382462477786701 5.645296993521905 10.146136166279126 0 0 0
432 62 18 0.147243 12.636860559186708 6.7133265010741425 12.97322318788783 0 0 0
114 19 6 0.125383 10.604236126729335 5.674993401616283 14.343401170471713 0 0 0
425 62 11 -0.147259 13.567438270016622 7.142984996128111 14.882874995099863 0 0 0
112 19 4 0.125383 9.401765079404733 3.5903895396929313 12.423473226430378 0 0 0
52 9 4 0.125383 7.260307050708719 2.3439215648151546 13.879736324538923 0 1 0
113 19 5 0.125383 11.361847369071477 4.060705870355519 13.845373505359127 0 0 0
111 19 3 0.125383 8.656890020665763 5.204948080741577 12.927338521778388 0 0 0
411 61 9 -0.147296 11.020261789590426 7.208591078349659 8.790575486501268 0 0 0
420 61 18 0.147243 10.073067617591965 7.188770871464442 12.078320620925611 0 0 0
431 62 17 0.147221 13.261110025497164 6.212383339531053 15.33816372464994 0 0 0
66 11 6 0.125383 8.515583568899954 4.991838055748239 17.417214070807216 0 1 0
65 11 5 0.125383 8.350864841920329 4.011678162345137 15.85872351008859 0 1 0
62 11 2 -0.250766 7.8797616425941515 4.465001060186608 16.719467474655865 0 1 0
257 43 5 0.125383 12.354938898910165 7.292497241472778 29.805652674424394 0 0 0
597 76 15 0.1474 9.537338800979605 8.555219362690503 2.3757365030631843 0 0 1
254 43 2 -0.250766 12.899321128930406 7.645014790480169 0.6420146061078156 0 0 1
258 43 6 0.125383 12.518895379936959 8.526689380645767 1.138590952724877 0 0 1
595 76 13 0.147239 8.980390349185233 10.927673094860282 1.912812481677964 0 0 1
5 1 5 0.125383 13.329278673632391 14.188440583773959 2.774996148622835 0 0 0
591 76 9 -0.147296 9.345610933027217 8.87391230390772 1.3602038185652952 0 0 1
616 78 10 -0.147296 10.032552057145631 10.24338416150969 4.9269961971124285 0 0 0
137 23 5 0.125383 10.809425747865394 14.683238611945557 0.907111220277335 0 0 1
11 2 5 0.125383 10.897102237135972 12.510280085630404 6.7641805633089644 0 0 0
624 78 18 0.147243 11.129107723392114 11.78787403712181 3.8752148465847696 0 0 0
138 23 6 0.125383 10.052767431505394 13.512705734803468 2.1265623575829817 0 0 1
623 78 17 0.147221 12.952148133455111 10.268527129457881 3.1527032214047366 0 0 0
615 78 9 -0.147296 12.106348788268386 8.522672827408483 4.10917593447878 0 0 0
617 78 11 -0.147259 12.136785420091734 9.883764574756308 3.7483870421769825 0 0 0
618 78 12 -0.147307 11.100503202652202 10.744719059155424 4.157219624912885 0 0 0
622 78 16 0.1474 9.234902370929804 10.900615245405833 5.241790476714861 0 0 0
134 23 2 -0.250766 10.750090402636657 13.685602030901734 1.320938541653909 0 0 1
135 23 3 0.125383 11.478133855353642 11.698195209435873 1.2373189050676363 0 0 1
133 23 1 -0.250766 11.523211316277203 12.701239193915512 0.8398163905127543 0 0 1
589 76 7 -0.147307 9.030192922067213 10.220321714171051 1.0974212911972123 0 0 1
614 78 8 -0.147259 10.001772322483713 8.88190917317261 5.287762792057627 0 0 0
620 78 14 0.147221 9.183347737062599 8.497769416147719 5.881471628611021 0 0 0
621 78 15 0.1474 12.899169870498246 7.861709048413835 3.7891270132025054 0 0 0
613 78 7 -0.147307 11.038703438044303 8.021072030431645 4.878478610205572 0 0 0
10 2 4 0.125383 12.910815785986536 11.103718448868278 6.700584438722673 0 0 0
4 1 4 0.125383 13.116026597952027 13.218538258363699 5.030386923004949 0 0 0
2 1 2 -0.250766 14.093849118892278 13.54352646696748 3.1859377225436925 0 0 0
593 76 11 -0.147259 9.418107074727219 7.94848703562298 0.30112676339021116 0 0 1
1 1 1 -0.250766 13.979237648398408 13.015555895726486 4.413430031414626 0 0 0
261 44 3 0.125383 14.008466421008707 11.325439864269514 1.1308730947583692 0 0 0
136 23 4 0.125383 12.216366773890302 12.885046951772006 0.030539001977165373 0 0 1
243 41 3 0.125383 8.258936393331066 8.214374439067123 8.862729202300494 0 0 0
46 8 4 0.125383 12.769874685704716 11.38458702174978 11.91260321322488 0 0 0
404 60 14 0.147221 7.444414687223715 9.113009585188863 11.578684037528866 0 0 0
47 8 5 0.125383 10.749556571025426 12.784314906653748 11.903048982953692 0 0 0
43 8 1 -0.250766 12.765806782661791 12.356201179274581 11.441642737791014 0 0 0
424 62 10 -0.147296 13.612420629418619 8.636754237432381 12.955173604404782 0 0 0
246 41 6 0.125383 8.630977732301638 10.355486171375427 7.729240299323526 0 0 0
45 8 3 0.125383 13.682979680255388 12.693757015627076 10.979891172809525 0 0 0
12 2 6 0.125383 11.377746428559902 13.130975493798479 8.437811363748414 0 0 0
8 2 2 -0.250766 11.599506996538864 12.504592079306269 7.583840814894957 0 0 0
416 61 14 0.147221 11.309110600746536 10.509883783725353 9.636350194697746 0 0 0
430 62 16 0.1474 13.344118935964422 8.845560785975394 11.928724763006253 0 0 0
406 60 16 0.1474 8.749180913049187 10.453002261486189 13.212148126356224 0 0 0
105 18 3 0.125383 8.89222846027222 12.81726910987897 10.202049900713886 0 0 0
44 8 2 -0.250766 11.662809179835243 13.118189036346593 11.43464161052565 0 0 0
106 18 4 0.125383 8.518703634576086 11.020441575454143 10.392559950485124 0 0 0
455 64 17 0.147221 8.882877399262936 14.387846068460986 12.784148637881268 0 0 0
422 62 8 -0.147259 14.365265840434157 9.568814652799256 13.693699769577654 0 0 0
409 61 7 -0.147307 11.280704516213943 8.58594239166936 8.646278710811176 0 0 0
402 60 12 -0.147307 8.39055505638891 9.103049145361657 14.864446405416569 0 0 0
410 61 8 -0.147259 11.111096504997755 9.45303251421533 9.742860735919955 0 0 0
414 61 12 -0.147307 10.41321479522086 7.570365932518995 11.12528655292356 0 0 0
7 2 1 -0.250766 12.700297353343169 11.739021982372703 7.54897133649167 0 0 0
312 52 6 0.125383 12.047783835830385 12.355861451979438 14.341800231502647 0 0 0
418 61 16 0.1474 10.554964149943439 9.60826524362553 11.824776522865307 0 0 0
241 41 1 -0.250766 7.428914250644118 8.795804691010193 8.48679527522812 0 0 0
412 61 10 -0.147296 10.680139645676842 8.944825831450911 10.981683479918233 0 0 0
103 18 1 -0.250766 8.26066555207488 12.045838518460041 10.619248948795644 0 0 0
9 2 3 0.125383 13.399873009329614 11.725313407673246 8.374238806837079 0 0 0
48 8 6 0.125383 11.656215101372878 14.092621051487988 10.96544147253748 0 0 0
415 61 13 0.147239 11.6106851756127 8.979992127120312 7.6946603376317295 0 0 0
400 60 10 -0.147296 8.27031229126867 9.538226727989098 13.530606891553752 0 0 0
456 64 18 0.147243 9.502134868060356 12.547333444839458 14.32862378567382 0 0 0
450 64 12 -0.147307 9.21873790278079 13.511098253289143 14.725951271651077 0 0 0
449 64 11 -0.147259 8.86662069525963 14.556183547643712 13.851193702823732 0 0 0
242 41 2 -0.250766 7.631713867483374 9.966755909259177 7.86562991841376 0 0 0
547 72 13 0.147239 13.308693726821751 14.528027368959313 8.822112840554082 0 0 0
398 60 8 -0.147259 7.523290365867817 8.782632888503539 12.605724804826584 0 0 0
608 77 14 0.147221 8.002705439141627 14.691684158930366 8.344910443996419 0 0 0
148 25 4 0.125383 13.76968482776688 7.397847550918152 9.705531049229267 0 0 0
426 62 12 -0.147307 13.213266821234054 7.424220732477734 13.548709388989783 0 0 0
118 20 4 0.125383 13.142323639009462 14.645191485375143 19.568203089494684 0 0 0
288 48 6 0.125383 13.2098384881431 11.933759804953606 19.57386818919935 0 0 0
287 48 5 0.125383 13.095359449281181 10.465057641095276 20.693303588401122 0 0 0
307 52 1 -0.250766 12.811313497885948 13.131546642215898 16.148627851923973 0 0 0
309 52 3 0.125383 12.712131175128622 14.16723859717757 15.855182712434976 0 0 0
283 48 1 -0.250766 13.823582078092615 10.090956017150814 18.74386377080569 0 0 0
284 48 2 -0.250766 13.350145901365417 10.873135646861309 19.72497425738164 0 0 0
311 52 5 0.125383 12.539775102439405 11.102361711014359 15.608706748345739 0 0 0
286 48 4 0.125383 13.96245939048886 9.029436666562841 18.89271966805083 0 0 0
310 52 4 0.125383 13.21522207665764 12.928604410536579 17.129811353874484 0 0 0
308 52 2 -0.250766 12.446285423491766 12.140568939404362 15.322443713363043 0 0 0
115 20 1 -0.250766 12.061434111183797 14.598949096404105 19.595493291218535 0 0 0
408 60 18 0.147243 8.970504071787829 9.679002293256628 15.571482093447777 0 0 0
117 20 3 0.125383 11.567719664469854 14.014106489884837 18.832086293053848 0 0 0
448 64 10 -0.147296 9.205327742852848 13.722344899469316 16.11848805731464 0 0 0
454 64 16 0.1474 9.48507521549357 12.920430264438329 16.78710719586929 0 0 0
285 48 3 0.125383 14.075831022250464 10.498942686800222 17.775340976979763 0 0 0
407 60 17 0.147221 7.835870405413354 7.580968255059749 16.299408629113223 0 0 0
322 53 16 0.1474 12.768022173415778 13.321253119353532 22.31974142884831 0 0 0
401 60 11 -0.147259 7.749882436850197 7.91826277135843 15.276123719514452 0 0 0
423 62 9 -0.147296 14.325288583688842 8.07407562538131 15.620831595678311 0 0 0
460 65 10 -0.147296 9.288893347650317 13.539048762114586 24.699423932733524 0 0 0
347 55 17 0.147221 11.772999960203071 9.93796293689375 28.961676800985682 0 0 0
598 76 16 0.1474 8.692771540302038 10.044542518241819 27.72885749266287 0 0 0
592 76 10 -0.147296 8.867541537700957 9.720060218580661 28.74451394168696 0 0 0
338 55 8 -0.147259 13.739853763791459 11.246542414662503 25.85957319354279 0 0 0
339 55 9 -0.147296 11.793308620126194 11.35173578090316 27.32727089342393 0 0 0
345 55 15 0.1474 10.849781358995907 11.80173793904401 27.602808762026374 0 0 0
344 55 14 0.147221 14.286072202411331 11.62021418066 25.00456616452436 0 0 0
600 76 18 0.147243 9.242235424972904 7.663576833233743 28.193251331983912 0 0 0
468 65 18 0.147243 10.493948590168397 13.967042539085687 22.95832243896002 0 0 0
341 55 11 -0.147259 12.319527118184862 10.298664195119636 28.100346847164477 0 0 0
337 55 7 -0.147307 12.49950187012659 11.819818611299981 26.20272208248649 0 0 0
342 55 12 -0.147307 13.553560160437847 9.71670646303494 27.74950408021907 0 0 0
586 75 16 0.1474 13.555459378517268 13.921536390537456 27.611921879353588 0 0 0
340 55 10 -0.147296 14.266467146252584 10.193202149812155 26.632293507913257 0 0 0
343 55 13 0.147239 12.09520388865987 12.628565216781235 25.61064299886738 0 0 0
462 65 12 -0.147307 9.985621124657523 14.385420203363767 23.815166767400765 0 0 0
316 53 10 -0.147296 13.662520015700506 13.553245793436567 22.881637941047895 0 0 0
466 65 16 0.1474 9.267019099877402 12.472993622332599 24.521944225749582 0 0 0
348 55 18 0.147243 13.95720257241539 8.906492346970431 28.340132525058596 0 0 0
314 53 8 -0.147259 13.599654759519904 14.417430817403275 23.99271293376952 0 0 0
596 76 14 0.147221 8.565604379576326 11.68315005615278 29.605807301683253 0 0 0
594 76 12 -0.147307 9.180566368033437 8.3717077652448 29.007357008507864 0 0 0
464 65 14 0.147221 8.079886313405732 13.435683025854008 26.488811962790688 0 0 0
458 65 8 -0.147259 8.61725907165862 14.083494408083183 25.811149914430345 0 0 0
590 76 8 -0.147259 8.79432579743395 10.64553173015977 29.804185713368007 0 0 0
580 75 10 -0.147296 13.120597951558892 14.76327165287162 28.13289526906395 0 0 0
234 39 6 0.125383 14.070304299911191 18.210541252512176 5.863322045000413 0 0 0
610 77 16 0.1474 9.968864743952073 15.309110937178907 6.939739094879734 0 0 0
232 39 4 0.125383 12.539371935000245 15.636691376730493 5.155547606792137 0 0 0
280 47 4 0.125383 13.475847510494821 21.382733564895084 5.396203158525898 0 0 0
233 39 5 0.125383 12.562255543322378 18.07302171681141 4.806807394808341 0 0 0
583 75 13 0.147239 13.758636459411134 16.87528809610496 0.710764078250744 0 0 1
40 7 4 0.125383 10.836221345434604 20.168317583848353 4.7558056794061745 0 0 0
41 7 5 0.125383 10.253444967424036 18.239045070362863 6.170424227949784 0 0 0
37 7 1 -0.250766 10.639289873352856 20.28753280367149 5.811317399075464 0 0 0
38 7 2 -0.250766 10.321855686571714 19.236438637808348 6.58158348022518 0 0 0
229 39 1 -0.250766 13.29854457627105 16.259622145147812 5.605821574547397 0 0 0
230 39 2 -0.250766 13.309329919076148 17.586299938841183 5.415930788612109 0 0 0
39 7 3 0.125383 10.707423066877205 21.28381142160397 6.22563402632455 0 0 0
585 75 15 0.1474 11.559074177095006 17.797503396633434 -0.011935835125933589 0 0 1
231 39 3 0.125383 14.05098637330094 15.776780427933359 6.212177830718579 0 0 0
21 4 3 0.125383 13.998121488619976 18.10758327938436 8.473187665644769 0 0 0
611 77 17 0.147221 11.7385361101214 17.32771503815151 10.311840455757157 0 0 0
604 77 10 -0.147296 9.927237723005566 15.610527190339175 7.9767781346065805 0 0 0
22 4 4 0.125383 12.813356766077083 19.50959884086654 8.264643013182688 0 0 0
548 72 14 0.147221 13.837586274197829 16.058779659595036 10.70402784839453 0 0 0
91 16 1 -0.250766 12.346467704087212 15.913141745075261 13.425928939329562 0 0 0
92 16 2 -0.250766 12.488532020892386 17.2259700064871 13.190874968724867 0 0 0
93 16 3 0.125383 13.032945753455731 15.185909495058626 13.015567105033023 0 0 0
94 16 4 0.125383 11.540694067383884 15.540851994772243 14.043456435504108 0 0 0
95 16 5 0.125383 11.798934184440888 17.942403268936186 13.613151705054511 0 0 0
96 16 6 0.125383 13.297289600093908 17.60374321044486 12.58295654702372 0 0 0
453 64 15 0.1474 8.234752626369453 16.618557757416344 13.696388403816275 0 0 0
612 77 18 0.147243 11.835985415400438 16.62930189093734 7.929441806449813 0 0 0
601 77 7 -0.147307 8.764421278571913 15.658298666918833 10.121342567019012 0 0 0
603 77 9 -0.147296 9.822198308467618 16.40214648916057 10.679208781149658 0 0 0
605 77 11 -0.147259 10.930109007299968 16.751826803276508 9.884737243468283 0 0 0
609 77 15 0.1474 9.789315562549552 16.708207986100998 11.715343417767109 0 0 0
447 64 9 -0.147296 8.502323887523367 15.815346389224336 14.367983441481481 0 0 0
23 4 5 0.125383 13.389605190972377 20.32561686196137 10.518246864451246 0 0 0
42 7 6 0.125383 10.128244773776546 19.351507728749976 7.638470586932846 0 0 0
606 77 12 -0.147307 10.984197785002054 16.3548615116676 8.53540640904453 0 0 0
607 77 13 0.147239 7.90885929089832 15.396442456401445 10.726593069134676 0 0 0
602 77 8 -0.147259 8.816986826386366 15.261449145152945 8.77052949505332 0 0 0
226 38 4 0.125383 8.229379767186865 18.12779986160281 8.777780202637759 0 0 0
19 4 1 -0.250766 13.53551980276376 18.995242872047097 8.882651670017115 0 0 0
225 38 3 0.125383 7.4164219344269515 19.710827526071277 8.282141170689643 0 0 0
223 38 1 -0.250766 7.362442484064894 18.772917260461355 8.81546085198086 0 0 0
20 4 2 -0.250766 13.850402916674646 19.437551529570737 10.109047182170396 0 0 0
541 72 7 -0.147307 14.337031893454851 14.782831489851935 9.033805104269021 0 0 0
26 5 2 -0.250766 12.00289372320185 17.082710224961456 16.881807835384855 0 0 0
30 5 6 0.125383 11.522909188320188 17.94045818468364 16.43451712938469 0 0 0
119 20 5 0.125383 11.854533312574683 15.845619999641539 21.28917289353108 0 0 0
116 20 2 -0.250766 11.358920697125024 15.25430628422157 20.531712649992294 0 0 0
28 5 4 0.125383 13.806546883856424 16.043763701251184 17.248112123378288 0 0 0
25 5 1 -0.250766 13.330352083464748 16.907804125463255 16.805804157970115 0 0 0
120 20 6 0.125383 10.278877480663452 15.21390646312574 20.554695810811435 0 0 0
451 64 13 0.147239 8.214532259963374 16.992976064489923 16.160224813452928 0 0 0
29 5 5 0.125383 11.373530069597514 16.362906874273968 17.384803446248938 0 0 0
336 54 18 0.147243 13.49886748187125 17.199357425466776 19.632150186625193 0 0 0
27 5 3 0.125383 13.963331333414375 17.61921029978466 16.296052672872758 0 0 0
445 64 7 -0.147307 8.490497439839805 16.02711487011717 15.760841765106298 0 0 0
446 64 8 -0.147259 8.837264306311768 14.9791082317496 16.63639540000284 0 0 0
452 64 14 0.147221 8.826699315101767 15.140897756939696 17.705229086598727 0 0 0
335 54 17 0.147221 14.146797239576557 19.564578971887443 19.2318165273692 0 0 0
330 54 12 -0.147307 14.219903382561618 17.677368743339304 20.2799352596884 0 0 0
503 68 17 0.147221 12.826737178776614 18.995728234839756 22.391620384262783 0 0 0
183 31 3 0.125383 7.510879299082616 15.266081098565959 22.34514039882861 0 0 0
459 65 9 -0.147296 9.35166467420225 16.318756216921233 25.160121206455663 0 0 0
320 53 14 0.147221 12.659145161041188 14.85394547270602 24.295732114210622 0 0 0
579 75 9 -0.147296 11.988920730834218 16.954500452265695 29.494752351210902 0 0 0
581 75 11 -0.147259 11.309143348069902 16.372768183177786 28.40662108727097 0 0 0
495 68 9 -0.147296 13.02769997499247 18.085915588908428 24.337676620510578 0 0 0
587 75 17 0.147221 10.35698049405504 16.769229273927582 28.08566470922212 0 0 0
582 75 12 -0.147307 11.875270481273438 15.277723403133102 27.72460727992254 0 0 0
457 65 7 -0.147307 8.643648918784363 15.473939592480118 26.038196177534196 0 0 0
501 68 15 0.1474 13.657451807415507 17.28410023792867 23.98166527609155 0 0 0
577 75 7 -0.147307 13.23167277646223 16.434870461005737 29.905267404352173 0 0 0
102 17 6 0.125383 14.244487135833625 19.648131055407283 27.839704448847645 0 0 -1
493 68 7 -0.147307 12.693119902912548 18.165532683422697 25.701990547592057 0 0 0
497 68 11 -0.147259 12.553140843226357 19.056986771502242 23.435860244274995 0 0 0
499 68 13 0.147239 13.06570567408859 17.42283405666311 26.39423433166793 0 0 0
467 65 17 0.147221 10.56410386520127 16.43079285993484 23.38146127532717 0 0 0
101 17 5 0.125383 13.92385352283227 19.329541529753506 29.629833662126345 0 0 -1
461 65 11 -0.147259 10.021858255428912 15.774942427913706 24.048747958299796 0 0 0
463 65 13 0.147239 8.125932182194598 15.892169675632555 26.88991511447591 0 0 0
500 68 14 0.147221 11.626593190983007 19.27674914079741 27.214261818583765 0 0 0
498 68 12 -0.147307 11.738879114815184 20.108679740638422 23.897859709081143 0 0 0
494 68 8 -0.147259 11.87798070504752 19.21622495732653 26.164901768506393 0 0 0
502 68 16 0.1474 10.781139074359308 20.99861177682861 25.619986228251697 0 0 0
578 75 8 -0.147259 13.795457991090734 15.338321212330483 29.226991100553974 0 0 0
465 65 15 0.1474 9.387569981429095 17.385425999184204 25.335488230548542 0 0 0
504 68 18 0.147243 11.378792592152719 20.8549512115974 23.2043329546924 0 0 0
496 68 10 -0.147296 11.401370809840998 20.188509741845582 25.263530022279493 0 0 0
588 75 18 0.147243 11.355326099201061 14.836741423762296 26.88515705738332 0 0 0
98 17 2 -0.250766 14.199722104462928 20.026085495855032 28.851110859076563 0 0 -1
566 74 8 -0.147259 18.44030158434334 6.64938046033296 13.974826208508638 0 0 0
149 25 5 0.125383 15.65805065099361 6.5693235477283505 11.038789884222748 0 0 0
565 74 7 -0.147307 19.79000705095125 7.041537275965378 14.073678403564776 0 0 0
574 74 16 0.1474 16.43705954853494 7.267061243925234 13.422275584526332 0 0 0
572 74 14 0.147221 18.139944549139496 5.656848158005556 14.277637930406168 0 0 0
571 74 13 0.147239 20.52773318732193 6.348812817787112 14.452582816016609 0 0 0
18 3 6 0.125383 17.163858585457156 7.016560173086427 28.60158957810783 0 0 -1
264 44 6 0.125383 15.448601108452145 10.599050833276745 2.994230138331703 0 0 0
259 44 1 -0.250766 14.935677101585348 10.800786000030048 0.9537464714316897 0 0 0
260 44 2 -0.250766 15.720820910435503 10.405427595776539 1.9667138846716479 0 0 0
263 44 5 0.125383 16.64757665768575 9.881039778301883 1.7814198000413142 0 0 0
166 28 4 0.125383 16.43932215909295 14.562738149709551 5.3476874115394875 0 0 0
255 43 3 0.125383 14.547169045939565 7.377097180131278 1.9375867290625266 0 0 1
165 28 3 0.125383 17.20885098225915 13.25079423726098 4.295029321876474 0 0 0
168 28 6 0.125383 19.439922699180126 14.182646325825148 4.774149847254119 0 0 0
164 28 2 -0.250766 18.545376082646904 14.620066082530565 5.193842342909553 0 0 0
36 6 6 0.125383 20.5703201431876 8.494257955244844 7.026569029198075 0 0 0
3 1 3 0.125383 14.743489844500504 12.370831704538771 4.822313508919834 0 0 0
6 1 6 0.125383 14.955097563015695 13.340685008756564 2.565796405773672 0 0 0
163 28 1 -0.250766 17.33123291849001 14.114688651350232 4.932269875981856 0 0 0
549 72 15 0.1474 15.145634478225896 13.570261854453232 7.4368101629925345 0 0 0
126 21 6 0.125383 17.167191276678498 12.609846380440315 0.10442289182626298 0 0 1
73 13 1 -0.250766 16.491958450287864 11.187600120027152 10.269535485919112 0 0 0
74 13 2 -0.250766 17.814302095485907 11.08456224972239 10.069795343183458 0 0 0
75 13 3 0.125383 15.961794570522315 12.09888084613778 10.03264363896238 0 0 0
76 13 4 0.125383 15.918686260649103 10.369249077734521 10.680786735881357 0 0 0
77 13 5 0.125383 18.34927056950583 10.177611206031631 10.312568634920098 0 0 0
78 13 6 0.125383 18.381943691757627 11.909332259874176 9.663643587446867 0 0 0
567 74 9 -0.147296 20.177029741107994 8.339366698572352 13.684773301547162 0 0 0
158 27 2 -0.250766 20.64209783242778 13.98154682073741 11.051257285292714 0 0 0
570 74 12 -0.147307 17.866588695115937 8.851031258244433 13.095980973102627 0 0 0
145 25 1 -0.250766 14.750107021773923 7.8462424422494985 9.621942435477745 0 0 0
161 27 5 0.125383 20.682916055694697 13.268088452883058 10.241344001511647 0 0 0
568 74 10 -0.147296 17.47806293734296 7.555611712038848 13.48770920616297 0 0 0
160 27 4 0.125383 18.5611133289338 13.785657615329383 11.3760703214011 0 0 0
146 25 2 -0.250766 15.780907469147333 7.393579575189732 10.35074788156205 0 0 0
269 45 5 0.125383 16.799969800026517 11.831703082571925 14.55054162288486 0 0 0
150 25 6 0.125383 16.761159777600895 7.843345378943396 10.282045592745321 0 0 0
569 74 11 -0.147259 19.214728341067538 9.243714360649117 13.194973063734487 0 0 0
575 74 17 0.147221 19.5096564982847 10.240649198392017 12.900755386604166 0 0 0
576 74 18 0.147243 17.12442367863897 9.544967169124375 12.728218845319862 0 0 0
157 27 1 -0.250766 19.485845233738083 14.26262903982379 11.668936241393022 0 0 0
266 45 2 -0.250766 16.815883467192553 12.344914188592462 13.599834019590823 0 0 0
543 72 9 -0.147296 15.375860656724536 14.24339002603468 8.25069761248861 0 0 0
270 45 6 0.125383 17.692583300700775 12.212750478370038 12.982984941564787 0 0 0
35 6 5 0.125383 21.57434830476289 8.010412207960595 8.50144073217822 0 0 0
265 45 1 -0.250766 15.790021697417087 13.107930636237908 13.193483011123984 0 0 0
268 45 4 0.125383 14.906820484090213 13.234523454750862 13.804527330683687 0 0 0
573 74 15 0.1474 21.210420749997024 8.644999759361685 13.765355302376323 0 0 0
267 45 3 0.125383 15.814839829748154 13.615934227603224 12.238592848525562 0 0 0
561 73 15 0.1474 20.270108091641212 12.537065479623495 13.710198398582108 0 0 0