LAMMPS data file generated with LigParGen (israel.cabezadevaca@yale.edu)

       5 atoms
       4 bonds
       6 angles
       0 dihedrals
       5 atom types
       4 bond types
       6 angle types
       0 dihedral types

   -0.629000    49.371000 xlo xhi
   -0.629000    49.371000 ylo yhi
   -0.629000    49.371000 zlo zhi

Masses

       1     12.011
       2      1.008
       3      1.008
       4      1.008
       5      1.008

Pair Coeffs

       1      0.066  3.5000000
       2      0.030  2.5000000
       3      0.030  2.5000000
       4      0.030  2.5000000
       5      0.030  2.5000000

Bond Coeffs

       1   340.0000     1.0900
       2   340.0000     1.0900
       3   340.0000     1.0900
       4   340.0000     1.0900

Angle Coeffs

       1     33.000    107.800
       2     33.000    107.800
       3     33.000    107.800
       4     33.000    107.800
       5     33.000    107.800
       6     33.000    107.800

Dihedral Coeffs


Atoms

     1      1      1  -0.299143  0.00000  0.00000  0.00000
     2      1      2   0.074786  0.62900  0.62900  0.62900
     3      1      3   0.074786 -0.62900 -0.62900  0.62900
     4      1      4   0.074786 -0.62900  0.62900 -0.62900
     5      1      5   0.074785  0.62900 -0.62900 -0.62900

Bonds

     1      1      2      1
     2      2      3      1
     3      3      4      1
     4      4      5      1

Angles

     1      1      3      1      2
     2      2      4      1      2
     3      3      5      1      2
     4      4      4      1      3
     5      5      5      1      3
     6      6      5      1      4

Dihedrals



