LAMMPS data file generated with LigParGen (israel.cabezadevaca@yale.edu)

       9 atoms
       8 bonds
      13 angles
       6 dihedrals
       9 atom types
       8 bond types
      13 angle types
       6 dihedral types

   -2.362000    47.638000 xlo xhi
   -1.646000    48.354000 ylo yhi
   -1.513000    48.487000 zlo zhi

Masses

       1     32.067
       2     32.067
       3     18.998
       4     18.998
       5     15.999
       6     15.999
       7     15.999
       8     15.999
       9     14.007

Pair Coeffs

       1      0.250  3.5500000
       2      0.250  3.5500000
       3      0.060  2.9000000
       4      0.060  2.9000000
       5      0.170  2.9600000
       6      0.170  2.9600000
       7      0.170  2.9600000
       8      0.170  2.9600000
       9      0.170  3.2500000

Bond Coeffs

       1   250.0000     1.7300
       2   250.0000     1.7300
       3   450.0000     1.6000
       4   450.0000     1.6000
       5   700.0000     1.4400
       6   700.0000     1.4400
       7   700.0000     1.4400
       8   700.0000     1.4400

Angle Coeffs

       1     80.290    117.310
       2     76.450    103.980
       3     76.450    103.980
       4     76.450    103.980
       5     76.450    103.980
       6     76.450    103.980
       7     76.450    103.980
       8     62.000    106.200
       9     62.000    106.200
      10     62.000    106.200
      11     62.000    106.200
      12    104.000    123.000
      13    104.000    123.000

Dihedral Coeffs

       1      0.000      0.000      0.000      0.000
       2      0.000      0.000      0.000      0.000
       3      0.000      0.000      0.000      0.000
       4      0.000      0.000      0.000      0.000
       5      0.000      0.000      0.000      0.000
       6      0.000      0.000      0.000      0.000

Atoms

     1      1      1   1.825587 -1.50400 -0.06100  0.13000
     2      1      2   1.825270  1.29400 -0.31400 -0.06200
     3      1      3  -0.244490 -1.34700 -1.64600 -0.01300
     4      1      4  -0.244431  0.84000 -0.81200 -1.51300
     5      1      5  -0.506861 -2.36200  0.18400  1.26000
     6      1      6  -0.506861 -1.74200  0.49100 -1.17800
     7      1      7  -0.506725  2.32800  0.67000 -0.25200
     8      1      8  -0.506725  1.44600 -1.46600  0.78700
     9      1      9  -2.134764  0.00100  0.55600  0.60100

Bonds

     1      1      1      9
     2      2      2      9
     3      3      3      1
     4      4      4      2
     5      5      5      1
     6      6      6      1
     7      7      7      2
     8      8      8      2

Angles

     1      1      2      9      1
     2      2      3      1      9
     3      3      4      2      9
     4      4      5      1      9
     5      5      6      1      9
     6      6      7      2      9
     7      7      8      2      9
     8      8      5      1      3
     9      9      6      1      3
    10     10      7      2      4
    11     11      8      2      4
    12     12      6      1      5
    13     13      8      2      7

Dihedrals

     1      1      3      1      9      2
     2      2      4      2      9      1
     3      3      5      1      9      2
     4      4      6      1      9      2
     5      5      7      2      9      1
     6      6      8      2      9      1


