LAMMPS data file generated with LigParGen (israel.cabezadevaca@yale.edu)

      12 atoms
      12 bonds
      18 angles
      24 dihedrals
       6 impropers

      12 atom types
      12 bond types
      18 angle types
      24 dihedral types
       6 improper types

   -2.178000    47.822000 xlo xhi
   -2.496000    47.504000 ylo yhi
    0.000000    50.000000 zlo zhi

Masses

       1     12.011
       2     12.011
       3     12.011
       4     12.011
       5     12.011
       6     12.011
       7      1.008
       8      1.008
       9      1.008
      10      1.008
      11      1.008
      12      1.008

Pair Coeffs

       1      0.070  3.5500000
       2      0.070  3.5500000
       3      0.070  3.5500000
       4      0.070  3.5500000
       5      0.070  3.5500000
       6      0.070  3.5500000
       7      0.030  2.4200000
       8      0.030  2.4200000
       9      0.030  2.4200000
      10      0.030  2.4200000
      11      0.030  2.4200000
      12      0.030  2.4200000

Bond Coeffs

       1   469.0000     1.4000
       2   469.0000     1.4000
       3   469.0000     1.4000
       4   469.0000     1.4000
       5   469.0000     1.4000
       6   367.0000     1.0800
       7   367.0000     1.0800
       8   367.0000     1.0800
       9   367.0000     1.0800
      10   367.0000     1.0800
      11   367.0000     1.0800
      12   469.0000     1.4000

Angle Coeffs

       1     63.000    120.000
       2     63.000    120.000
       3     63.000    120.000
       4     63.000    120.000
       5     35.000    120.000
       6     35.000    120.000
       7     35.000    120.000
       8     35.000    120.000
       9     35.000    120.000
      10     35.000    120.000
      11     35.000    120.000
      12     35.000    120.000
      13     35.000    120.000
      14     35.000    120.000
      15     63.000    120.000
      16     35.000    120.000
      17     35.000    120.000
      18     63.000    120.000

Dihedral Coeffs

       1      0.000      7.250      0.000      0.000
       2      0.000      7.250      0.000      0.000
       3      0.000      7.250      0.000      0.000
       4      0.000      7.250      0.000      0.000
       5      0.000      7.250      0.000      0.000
       6      0.000      7.250      0.000      0.000
       7      0.000      7.250      0.000      0.000
       8      0.000      7.250      0.000      0.000
       9      0.000      7.250      0.000      0.000
      10      0.000      7.250      0.000      0.000
      11      0.000      7.250      0.000      0.000
      12      0.000      7.250      0.000      0.000
      13      0.000      7.250      0.000      0.000
      14      0.000      7.250      0.000      0.000
      15      0.000      7.250      0.000      0.000
      16      0.000      7.250      0.000      0.000
      17      0.000      7.250      0.000      0.000
      18      0.000      7.250      0.000      0.000
      19      0.000      7.250      0.000      0.000
      20      0.000      7.250      0.000      0.000
      21      0.000      7.250      0.000      0.000
      22      0.000      7.250      0.000      0.000
      23      0.000      7.250      0.000      0.000
      24      0.000      7.250      0.000      0.000

Improper Coeffs

       1      2.500      -1       2
       2      2.500      -1       2
       3      2.500      -1       2
       4      2.500      -1       2
       5      2.500      -1       2
       6      2.500      -1       2

Atoms

     1      1      1  -0.147307 -1.23800 -0.70200  0.00000
     2      1      2  -0.147259 -1.22700  0.70700  0.00000
     3      1      3  -0.147296 -0.02300 -1.41600  0.00000
     4      1      4  -0.147296 -0.00200  1.40200  0.00000
     5      1      5  -0.147259  1.20200 -0.72100  0.00000
     6      1      6  -0.147307  1.21300  0.68800  0.00000
     7      1      7   0.147239 -2.17800 -1.23500  0.00000
     8      1      8   0.147221 -2.15900  1.25400  0.00000
     9      1      9   0.147400 -0.03200 -2.49600  0.00000
    10      1     10   0.147400  0.00700  2.48200  0.00000
    11      1     11   0.147221  2.13400 -1.26800  0.00000
    12      1     12   0.147243  2.15300  1.22100  0.00000

Bonds

     1      1      4      6
     2      2      5      6
     3      3      2      4
     4      4      3      5
     5      5      1      3
     6      6      7      1
     7      7      8      2
     8      8      9      3
     9      9     10      4
    10     10     11      5
    11     11     12      6
    12     12      1      2

Angles

     1      1      5      6      4
     2      2      2      4      6
     3      3      3      5      6
     4      4      1      3      5
     5      5      7      1      3
     6      6      8      2      4
     7      7      9      3      5
     8      8     10      4      6
     9      9     11      5      6
    10     10     12      6      4
    11     11     12      6      5
    12     12     10      4      2
    13     13     11      5      3
    14     14      9      3      1
    15     15      4      2      1
    16     16      8      2      1
    17     17      2      1      7
    18     18      3      1      2

Dihedrals

     1      1      2      4      6      5
     2      2      3      5      6      4
     3      3      1      3      5      6
     4      4      7      1      3      5
     5      5      8      2      4      6
     6      6      9      3      5      6
     7      7     10      4      6      5
     8      8     11      5      6      4
     9      9     12      6      4      2
    10     10     12      6      5      3
    11     11     11      5      3      1
    12     12      6      4      2      1
    13     13     10      4      2      1
    14     14      9      3      1      7
    15     15      4      2      1      7
    16     16      8      2      1      7
    17     17     10      4      2      8
    18     18      3      1      2      8
    19     19     11      5      3      9
    20     20      2      1      3      9
    21     21     12      6      4     10
    22     22     12      6      5     11
    23     23      5      3      1      2
    24     24      4      2      1      3

Impropers

     1      1      4      6      5     12
     2      2      6      4      2     10
     3      3      6      5      3     11
     4      4      4      2      1      8
     5      5      5      3      1      9
     6      6      3      1      2      7


