LAMMPS data file generated with LigParGen (israel.cabezadevaca@yale.edu)

       5 atoms
       4 bonds
       6 angles
       0 dihedrals
       5 atom types
       4 bond types
       6 angle types
       0 dihedral types

   -1.015000    48.985000 xlo xhi
   -1.021000    48.979000 ylo yhi
   -0.993000    49.007000 zlo zhi

Masses

       1     32.067
       2     15.999
       3     15.999
       4     15.999
       5     15.999

Pair Coeffs

       1      0.250  3.5500000
       2      0.170  2.9600000
       3      0.170  2.9600000
       4      0.170  2.9600000
       5      0.170  2.9600000

Bond Coeffs

       1   700.0000     1.4400
       2   700.0000     1.4400
       3   700.0000     1.4400
       4   700.0000     1.4400

Angle Coeffs

       1    104.000    123.000
       2    104.000    123.000
       3    104.000    123.000
       4    104.000    123.000
       5    104.000    123.000
       6    104.000    123.000

Dihedral Coeffs


Atoms

     1      1      1   1.384505  0.00000  0.00000  0.00000
     2      1      2  -0.846126  1.26500 -0.59600 -0.34200
     3      1      3  -0.846126  0.10100  0.63600  1.28800
     4      1      4  -0.846126 -0.35200  0.98100 -0.99300
     5      1      5  -0.846127 -1.01500 -1.02100  0.04600

Bonds

     1      1      2      1
     2      2      3      1
     3      3      4      1
     4      4      5      1

Angles

     1      1      3      1      2
     2      2      4      1      2
     3      3      5      1      2
     4      4      4      1      3
     5      5      5      1      3
     6      6      5      1      4

Dihedrals



