LAMMPS (29 Aug 2024 - Update 1)
  using 1 OpenMP thread(s) per MPI task
Reading data file ...
  orthogonal box = (0.052536 -0.03939 -0.028394) to (28.750299 29.591508 30.000268)
  4 by 4 by 4 MPI processor grid
  reading atoms ...
  624 atoms
  scanning bonds ...
  3 = max bonds/atom
  scanning angles ...
  3 = max angles/atom
  scanning dihedrals ...
  6 = max dihedrals/atom
  scanning impropers ...
  3 = max impropers/atom
  orthogonal box = (0.052536 -0.03939 -0.028394) to (28.750299 29.591508 30.000268)
  4 by 4 by 4 MPI processor grid
  reading bonds ...
  572 bonds
  reading angles ...
  780 angles
  reading dihedrals ...
  832 dihedrals
  reading impropers ...
  260 impropers
Finding 1-2 1-3 1-4 neighbors ...
  special bond factors lj:    0        0        0.5     
  special bond factors coul:  0        0        0.5     
     3 = max # of 1-2 neighbors
     4 = max # of 1-3 neighbors
     8 = max # of 1-4 neighbors
    10 = max # of special neighbors
  special bonds CPU = 0.016 seconds
  read_data CPU = 0.030 seconds

CITE-CITE-CITE-CITE-CITE-CITE-CITE-CITE-CITE-CITE-CITE-CITE-CITE

Your simulation uses code contributions which should be cited:
- Type Label Framework: https://doi.org/10.1021/acs.jpcb.3c08419
The log file lists these citations in BibTeX format.

CITE-CITE-CITE-CITE-CITE-CITE-CITE-CITE-CITE-CITE-CITE-CITE-CITE

PPPM initialization ...
  using 12-bit tables for long-range coulomb (../kspace.cpp:342)
  G vector (1/distance) = 0.19453732
  grid = 8 8 8
  stencil order = 5
  estimated absolute RMS force accuracy = 0.012070136
  estimated relative force accuracy = 3.6348857e-05
  using single precision MKL FFT
  3d grid and FFT values/proc = 343 8
Generated 153 of 153 mixed pair_coeff terms from geometric mixing rule
Neighbor list info ...
  update: every = 1 steps, delay = 0 steps, check = yes
  max neighbors/atom: 2000, page size: 100000
  master list distance cutoff = 13
  ghost atom cutoff = 13
  binsize = 6.5, bins = 5 5 5
  1 neighbor lists, perpetual/occasional/extra = 1 0 0
  (1) pair lj/cut/coul/long, perpetual
      attributes: half, newton on
      pair build: half/bin/newton
      stencil: half/bin/3d
      bin: standard
Setting up cg style minimization ...
  Unit style    : real
  Current step  : 0
Per MPI rank memory allocation (min/avg/max) = 11.93 | 12.1 | 12.59 Mbytes
   Step          Temp          E_pair         E_mol          TotEng         Press     
         0   0              358.61751      9.8787918      368.4963       2505.8018    
      1658   0              64.441083      9.4880733      73.929156     -96.922324    
Loop time of 1.1824 on 64 procs for 1658 steps with 624 atoms

97.4% CPU use with 64 MPI tasks x 1 OpenMP threads

Minimization stats:
  Stopping criterion = energy tolerance
  Energy initial, next-to-last, final = 
      368.496302111173    73.932906274658   73.9291562006354
  Force two-norm initial, final = 256.93365 7.1511729
  Force max component initial, final = 26.396567 1.0582842
  Final line search alpha, max atom move = 0.0081045787 0.0085769475
  Iterations, force evaluations = 1658 3316

MPI task timing breakdown:
Section |  min time  |  avg time  |  max time  |%varavg| %total
---------------------------------------------------------------
Pair    | 0.00026874 | 0.071492   | 0.36492    |  31.4 |  6.05
Bond    | 0.00039085 | 0.010325   | 0.034239   |  10.1 |  0.87
Kspace  | 0.49337    | 0.80433    | 0.8873     |  10.2 | 68.03
Neigh   | 0.0057369  | 0.0060885  | 0.0064595  |   0.3 |  0.51
Comm    | 0.15069    | 0.16325    | 0.17667    |   1.9 | 13.81
Output  | 0          | 0          | 0          |   0.0 |  0.00
Modify  | 0          | 0          | 0          |   0.0 |  0.00
Other   |            | 0.1269     |            |       | 10.73

Nlocal:           9.75 ave          41 max           0 min
Histogram: 39 2 0 5 3 2 6 2 3 2
Nghost:        893.797 ave        1153 max         670 min
Histogram: 8 7 2 9 10 9 3 6 6 4
Neighs:        1693.83 ave        9535 max           0 min
Histogram: 39 5 1 6 5 4 0 2 0 2

Total # of neighbors = 108405
Ave neighs/atom = 173.72596
Ave special neighs/atom = 6.75
Neighbor list builds = 36
Dangerous builds = 0
System init for write_data ...
PPPM initialization ...
  using 12-bit tables for long-range coulomb (../kspace.cpp:342)
  G vector (1/distance) = 0.19453732
  grid = 8 8 8
  stencil order = 5
  estimated absolute RMS force accuracy = 0.012070136
  estimated relative force accuracy = 3.6348857e-05
  using single precision MKL FFT
  3d grid and FFT values/proc = 343 8
Generated 153 of 153 mixed pair_coeff terms from geometric mixing rule
Total wall time: 0:00:01
