LAMMPS (29 Aug 2024 - Update 1)
  using 1 OpenMP thread(s) per MPI task
Reading data file ...
  orthogonal box = (0.052536 -0.03939 -0.028394) to (28.750299 29.591508 30.000268)
  4 by 4 by 4 MPI processor grid
  reading atoms ...
  624 atoms
  reading velocities ...
  624 velocities
  scanning bonds ...
  3 = max bonds/atom
  scanning angles ...
  3 = max angles/atom
  scanning dihedrals ...
  6 = max dihedrals/atom
  scanning impropers ...
  3 = max impropers/atom
  orthogonal box = (0.052536 -0.03939 -0.028394) to (28.750299 29.591508 30.000268)
  4 by 4 by 4 MPI processor grid
  reading bonds ...
  572 bonds
  reading angles ...
  780 angles
  reading dihedrals ...
  832 dihedrals
  reading impropers ...
  260 impropers
Finding 1-2 1-3 1-4 neighbors ...
  special bond factors lj:    0        0        0.5     
  special bond factors coul:  0        0        0.5     
     3 = max # of 1-2 neighbors
     4 = max # of 1-3 neighbors
     8 = max # of 1-4 neighbors
    10 = max # of special neighbors
  special bonds CPU = 0.016 seconds
  read_data CPU = 0.030 seconds

CITE-CITE-CITE-CITE-CITE-CITE-CITE-CITE-CITE-CITE-CITE-CITE-CITE

Your simulation uses code contributions which should be cited:
- Type Label Framework: https://doi.org/10.1021/acs.jpcb.3c08419
The log file lists these citations in BibTeX format.

CITE-CITE-CITE-CITE-CITE-CITE-CITE-CITE-CITE-CITE-CITE-CITE-CITE

PPPM initialization ...
  using 12-bit tables for long-range coulomb (../kspace.cpp:342)
  G vector (1/distance) = 0.19453732
  grid = 8 8 8
  stencil order = 5
  estimated absolute RMS force accuracy = 0.012070136
  estimated relative force accuracy = 3.6348857e-05
  using single precision MKL FFT
  3d grid and FFT values/proc = 343 8
Generated 153 of 153 mixed pair_coeff terms from geometric mixing rule
Neighbor list info ...
  update: every = 1 steps, delay = 0 steps, check = yes
  max neighbors/atom: 2000, page size: 100000
  master list distance cutoff = 13
  ghost atom cutoff = 13
  binsize = 6.5, bins = 5 5 5
  1 neighbor lists, perpetual/occasional/extra = 1 0 0
  (1) pair lj/cut/coul/long, perpetual
      attributes: half, newton on
      pair build: half/bin/newton
      stencil: half/bin/3d
      bin: standard
Setting up Verlet run ...
  Unit style    : real
  Current step  : 0
  Time step     : 1
Per MPI rank memory allocation (min/avg/max) = 10.8 | 10.99 | 11.47 Mbytes
   Step          Temp          E_pair         E_mol          TotEng         Press          Volume    
         0   300            64.441083      9.4880733      631.04255      900.42773      25534.587    
      2000   310.91868      221.22461      447.60457      1246.2191     -896.43865      32707.467    
Loop time of 0.701533 on 64 procs for 2000 steps with 624 atoms

Performance: 246.318 ns/day, 0.097 hours/ns, 2850.900 timesteps/s, 1.779 Matom-step/s
97.4% CPU use with 64 MPI tasks x 1 OpenMP threads

MPI task timing breakdown:
Section |  min time  |  avg time  |  max time  |%varavg| %total
---------------------------------------------------------------
Pair    | 0.0030508  | 0.033826   | 0.17068    |  23.3 |  4.82
Bond    | 0.00023129 | 0.006689   | 0.030651   |  10.7 |  0.95
Kspace  | 0.30812    | 0.46193    | 0.50032    |   7.3 | 65.85
Neigh   | 0.009674   | 0.010044   | 0.010398   |   0.2 |  1.43
Comm    | 0.084485   | 0.097029   | 0.10712    |   1.9 | 13.83
Output  | 6.0578e-05 | 6.1894e-05 | 7.0756e-05 |   0.0 |  0.01
Modify  | 0.065327   | 0.075343   | 0.089314   |   2.3 | 10.74
Other   |            | 0.01661    |            |       |  2.37

Nlocal:           9.75 ave          34 max           0 min
Histogram: 29 6 5 2 4 5 2 4 2 5
Nghost:        739.531 ave         830 max         640 min
Histogram: 7 7 2 1 8 16 7 0 5 11
Neighs:        1347.61 ave        6519 max           0 min
Histogram: 36 6 4 2 5 2 4 3 1 1

Total # of neighbors = 86247
Ave neighs/atom = 138.21635
Ave special neighs/atom = 6.75
Neighbor list builds = 56
Dangerous builds = 0
PPPM initialization ...
  using 12-bit tables for long-range coulomb (../kspace.cpp:342)
  G vector (1/distance) = 0.187373
  grid = 8 8 8
  stencil order = 5
  estimated absolute RMS force accuracy = 0.01485068
  estimated relative force accuracy = 4.4722383e-05
  using single precision MKL FFT
  3d grid and FFT values/proc = 343 8
Generated 153 of 153 mixed pair_coeff terms from geometric mixing rule
Setting up Verlet run ...
  Unit style    : real
  Current step  : 2000
  Time step     : 2
Per MPI rank memory allocation (min/avg/max) = 10.81 | 11.04 | 11.47 Mbytes
   Step          Temp          E_pair         E_mol          TotEng         Press          Volume    
      2000   310.91868      221.35955      447.60457      1246.354      -896.62828      32707.467    
      2500   298.72056      236.43877      494.99972      1286.1759      821.01848      28846.584    
      3000   304.03336      233.20364      482.71072      1280.5179      706.9031       24630.739    
      3500   302.3188       225.96231      484.889        1272.2708     -216.28369      21450.62     
      4000   292.14284      219.26159      501.18939      1262.9733      360.6037       18240.435    
      4500   301.6501       209.91643      466.84862      1236.9428      312.99583      16204.641    
      5000   297.07499      209.95966      461.27168      1222.9129     -516.28592      14492.508    
      5500   304.8703       191.01376      461.74657      1218.9181     -1288.9541      13036.521    
      6000   298.18615      186.71037      472.72178      1213.1771     -112.3994       11609.179    
      6500   300.79638      175.63672      454.64786      1188.8769      294.46363      10793.559    
      7000   296.57386      167.99502      438.99328      1157.7392     -2516.216       10545.723    
      7500   302.52272      170.15266      438.63236      1170.5832      2814.0566      10263.715    
      8000   294.89976      188.80481      449.5373       1185.9841      2739.7926      10657.582    
      8500   306.01193      172.99541      438.68179      1179.955      -1411.0454      10549.613    
      9000   300.41173      164.37621      444.15201      1166.4062      1375.3902      10613.158    
      9500   294.62933      179.60105      462.43694      1189.1778      1274.5563      10617        
     10000   301.41521      167.68367      468.14179      1195.567      -672.53048      10761.018    
     10500   296.75829      162.46024      482.20709      1195.7607     -796.59576      10410.753    
     11000   300.34789      161.49492      454.72675      1173.9811      3275.5581      10186.992    
     11500   302.49698      170.32997      456.7609       1188.8413      2496.2903      10159.839    
     12000   302.83516      150.34745      455.68921      1168.4151     -797.09932      10112.171    
     12500   300.29641      157.42286      467.54623      1182.6329     -1406.1429      10164.622    
     13000   296.58518      159.10271      459.95945      1169.8341      1479.3681      10120.399    
     13500   307.7065       157.71875      434.69355      1163.837      -230.35251      10047.394    
     14000   297.04898      148.88578      477.25729      1177.7763     -1261.0315      10033.636    
     14500   295.30796      161.32528      469.67493      1179.4003     -220.25959      10216.728    
     15000   293.06388      148.32515      470.32826      1162.8861      785.86558      9676.9288    
     15500   289.69272      154.93924      481.24928      1174.1608     -917.99119      10148.212    
     16000   300.50935      145.75355      480.31597      1184.1288     -2487.9575      10351.486    
     16500   295.83893      157.46825      481.85344      1188.7078      978.04397      10181.24     
     17000   297.93615      146.85926      463.49355      1163.6336     -598.35366      9808.9979    
     17500   313.61508      137.66352      443.46673      1163.5275      171.45875      9823.1102    
     18000   309.78318      147.82414      451.9657       1175.071      -732.35605      10141.389    
     18500   292.08931      145.29398      489.50313      1177.22       -2436.5528      9901.6106    
     19000   291.02644      127.9747       470.92881      1139.3526      1691.3879      9219.7557    
     19500   298.10442      152.51938      452.23065      1158.3433      2585.2607      9558.471     
     20000   296.16141      138.49925      473.56649      1162.0507     -2230.0965      9696.4697    
     20500   308.884        124.3016       449.35812      1147.2711     -1463.1681      9246.0651    
     21000   293.9336       137.71898      470.35757      1153.9244      3282.3538      9385.8912    
     21500   306.8323       135.47735      456.86197      1162.1406      578.3876       9503.603     
     22000   305.93115      128.63907      475.26555      1172.0324     -1659.649       9561.5588    
     22500   288.16828      140.07365      487.12354      1162.3386      1354.6288      9342.8886    
     23000   296.11876      124.41886      468.6876       1143.0122      1690.5789      9083.1458    
     23500   296.40979      124.6063       479.40391      1154.4564      332.81546      9222.9248    
     24000   309.97571      133.50408      449.88541      1159.0282      451.89216      9533.9457    
     24500   297.59787      130.08161      489.15051      1171.8846     -40.487236      9556.9668    
     25000   300.55614      133.8306       465.01773      1156.9945      1476.4772      9563.2544    
     25500   299.17917      135.94618      484.01481      1175.5501     -750.68208      9658.2473    
     26000   301.47025      129.12922      468.62438      1157.5973     -1635.0973      9398.7546    
     26500   289.63716      142.20498      489.88817      1169.9623     -248.03745      9395.0762    
     27000   300.51639      128.22068      473.15069      1159.4437      1011.2404      9406.6502    
     27500   294.57719      138.86807      491.05564      1176.9667     -1154.5751      9891.2099    
     28000   292.79716      128.91889      491.03401      1163.6903     -1371.6776      9426.4529    
     28500   292.17269      120.91784      475.65126      1139.1468      1723.2041      9013.1965    
     29000   293.0728       114.16387      499.89932      1158.3125     -1818.2607      9310.7193    
     29500   299.47759      130.11888      466.43134      1152.6935      750.56252      9269.7237    
     30000   291.87259      148.65475      493.23436      1183.9095      1089.2794      9816.2975    
     30500   301.24822      130.36818      470.58378      1160.3834     -533.40113      9348.1406    
     31000   298.35233      136.32123      467.08131      1157.4561     -1873.7663      9499.1661    
     31500   307.31063      137.52105      456.83052      1165.0411      1534.9442      9365.5703    
     32000   291.02705      138.71927      488.57809      1167.7476      2437.6832      9379.2155    
     32500   302.28449      119.74844      473.95106      1155.0553      671.84464      9181.1746    
     33000   299.31563      123.04557      478.14234      1157.0304      278.71578      9267.093     
     33500   299.51736      108.81673      492.6707       1157.7045     -1169.2161      9161.5064    
     34000   302.55224      129.97631      477.64737      1169.4767      1974.9312      9532.5274    
     34500   301.42015      130.65638      470.46466      1160.8717     -317.86703      9391.9577    
     35000   295.14421      124.53418      474.52474      1147.1549      3597.101       9071.3164    
     35500   298.66044      135.11921      470.44938      1160.1944      300.73301      9277.9091    
     36000   287.44456      115.19472      499.86975      1148.8618      4790.2098      8942.2691    
     36500   301.71568      110.42789      489.02217      1159.7496     -3124.8912      8930.189     
     37000   308.33853      104.28129      477.63976      1154.5195     -2909.7455      8882.8018    
     37500   303.7752       128.82248      469.93633      1162.8829     -604.3326       9124.6503    
     38000   300.60586      108.94544      482.79981      1149.9838     -1215.9698      8912.4068    
     38500   299.13052      116.96361      486.29345      1158.7558     -57.904297      9091.4043    
     39000   295.77237      112.93865      494.77844      1156.9796      2454.3208      8996.7366    
     39500   298.20606      122.37657      492.48618      1168.6447      623.12915      9303.344     
     40000   301.78007      109.95046      465.05075      1135.4203     -178.36305      8904.1792    
     40500   301.10305      106.77709      475.55175      1141.4907      302.04491      8993.0453    
     41000   284.22944      124.79948      507.8505       1160.4767     -782.19731      9170.8998    
     41500   306.05441      108.39075      481.96164      1158.7091      1193.3199      9050.2636    
     42000   305.50299      112.10913      473.40547      1152.8473      113.44654      9031.934     
     42500   302.0312       102.10472      493.30975      1156.2999      245.12608      8833.9105    
     43000   301.17643      120.75035      479.99993      1160.0484     -726.50485      9017.0948    
     43500   297.17848      107.7821       502.69843      1162.3542     -3109.2878      8865.7068    
     44000   300.56969      114.91081      478.41798      1151.5001      376.07949      8788.567     
     44500   292.10271      111.08413      515.3924       1168.9243      2684.5756      8999.4198    
     45000   293.05864      109.98186      495.30716      1149.512       891.47527      8868.4729    
     45500   308.28918      106.57068      477.59778      1156.6752      1512.817       8824.3828    
     46000   288.75977      112.45675      510.20688      1158.9034     -2486.8262      9042.0771    
     46500   310.4666       100.98215      460.9145       1138.447       848.0417       8750.1716    
     47000   313.64777      102.99485      467.00228      1152.455       164.20859      8786.313     
     47500   302.04199      114.29402      468.14562      1143.3451      667.37843      8866.3551    
     48000   289.3202       109.64897      511.73856      1158.6681     -2316.4511      9069.8876    
     48500   297.2853       115.28185      484.57357      1151.9275      2731.3326      8914.1881    
     49000   299.96207      125.78465      484.48604      1167.3136     -2476.4549      9335.3038    
     49500   301.20044      113.06758      488.85539      1161.2656      84.958866      9140.5436    
     50000   300.44533      119.37782      492.60196      1169.9202      1728.4271      9125.1046    
     50500   310.09016      111.58155      458.79637      1146.2292      3128.605       8820.4208    
     51000   296.03395      119.93702      497.15026      1166.8355     -711.62562      9087.05      
     51500   306.61314      124.90391      469.92778      1164.226       3277.1414      9413.1733    
     52000   296.17142      121.16662      484.81062      1155.9808      265.1474       9265.5516    
     52500   295.36563      122.76728      490.12762      1161.4021     -498.53916      9091.9827    
     53000   288.04556      112.05534      514.56792      1161.5367     -1089.2478      8983.6116    
     53500   301.21596      124.42945      473.99811      1157.799      -835.79916      9083.5615    
     54000   291.38634      131.94345      488.95452      1162.0154      252.85303      9317.0677    
     54500   296.64267      115.04555      476.11158      1142.0358      2063.6559      9017.7053    
     55000   289.44901      116.50043      504.9086       1158.9288     -2086.9619      9181.6602    
     55500   297.7721       129.5206       477.72528      1160.222       3413.189       9179.3186    
     56000   300.05767      133.91679      475.93114      1167.0684      19.215066      9284.6466    
     56500   291.19739      118.05508      497.47559      1156.2972      2092.0886      9123.6729    
     57000   301.24409      108.38739      495.43157      1163.2427     -5189.4086      9334.9976    
     57500   304.1585       114.14088      474.77935      1153.7561      1238.1523      9066.2284    
     58000   292.19871      124.07636      487.87336      1154.5758      1576.6884      9058.7155    
     58500   294.24852      139.66664      494.39232      1180.4916      2953.8872      9213.7033    
     59000   318.16087      121.19169      444.58141      1156.612       576.18564      9295.7584    
     59500   297.39475      112.5851       503.99636      1168.8568     -3645.896       9128.3469    
     60000   292.15686      124.75687      485.72634      1153.0315      797.94241      9215.8996    
     60500   298.66997      133.19372      471.40827      1159.2455      2745.5627      9503.6274    
     61000   296.67638      129.24091      485.85085      1166.033      -431.18578      9222.0391    
     61500   301.76752      109.65161      481.21424      1151.2616      130.80858      9150.5479    
     62000   297.75263      124.78771      489.28926      1167.0169     -1609.5966      9462.0392    
     62500   313.20318      114.29327      459.16678      1155.0923     -661.40603      9093.7945    
     63000   300.75951      118.3963       483.54221      1160.4623      4023.6977      9202.5743    
     63500   286.10821      120.9259       507.05404      1159.2957      166.33602      9068.6128    
     64000   296.65412      120.87455      494.331        1166.1055      2888.6709      9237.3065    
     64500   297.71134      122.54274      487.00107      1162.4071      818.66971      8958.8958    
     65000   293.70569      118.1234       486.90999      1150.458       520.90166      9094.6491    
     65500   294.35989      117.12678      491.26789      1155.0341     -436.48168      9072.6086    
     66000   295.87869      125.61499      493.4167       1168.4916     -1580.2959      9439.9296    
     66500   301.99871      121.6681       502.86558      1185.3588     -4291.9508      9588.83      
     67000   292.77833      127.66372      504.47746      1175.8436      2668.9787      9289.6381    
     67500   300.84886      108.34345      477.04147      1144.0747     -631.07076      8866.5791    
     68000   293.7191       121.63687      485.77806      1152.8644     -45.5628        9005.9129    
     68500   308.84191      122.95557      457.88861      1154.3774      1173.0648      9110.9649    
     69000   299.07694      126.68864      481.46452      1163.5524      2954.6504      9213.1422    
     69500   279.81355      134.97794      524.23477      1178.839      -1761.2187      9182.7448    
     70000   288.40324      130.01476      494.43323      1160.0257     -195.16534      9056.2723    
     70500   293.54944      120.89073      496.77972      1162.8049     -1585.8903      8962.7563    
     71000   289.70474      131.96895      496.2823       1166.2459      215.4053       9182.6133    
     71500   302.62611      109.6622       469.73198      1141.3844     -971.18809      8717.484     
     72000   295.81771      120.46189      490.18419      1159.9928      1423.524       9165.1132    
     72500   293.48704      114.12989      495.08721      1154.2356      724.19708      8850.3102    
     73000   293.60389      113.8404       489.95646      1149.0324      1023.76        8927.9824    
     73500   295.5547       110.72075      486.13422      1145.7132     -1154.339       8841.4854    
     74000   297.99154      114.84749      476.50585      1144.7369      1398.4885      8828.5773    
     74500   306.93914      118.53628      462.29893      1150.8349      1875.7453      9050.6684    
     75000   302.30747      117.19179      488.0403       1166.6306      2532.3955      8956.8027    
     75500   295.287        110.4295       494.05857      1152.8492      573.87877      8929.0648    
     76000   298.99556      110.78093      485.53168      1151.5607      22.611514      8893.1175    
     76500   296.94794      109.14235      476.03421      1136.6221      1870.2817      8801.9478    
     77000   298.84261      106.25701      494.74527      1155.9664     -2259.8879      9016.1842    
     77500   297.04515      119.28815      493.83691      1164.7512     -111.97269      9191.2535    
     78000   305.12988      113.76722      478.34456      1158.7516      2331.1266      9171.7927    
     78500   299.93072      105.7058       491.45877      1154.1493     -2889.8024      9086.1518    
     79000   290.76729      121.67314      503.12081      1164.7618     -2719.9521      9304.3726    
     79500   306.67301      126.88004      469.16266      1165.5482     -864.5438       9297.4064    
     80000   295.69732      129.65839      491.82463      1170.6061      563.2448       9321.6279    
     80500   297.0914       124.33407      484.8883       1160.9344      1487.5658      9193.748     
     81000   302.62786      122.74125      477.42307      1162.1578      3664.9584      9151.8418    
     81500   303.18704      123.73008      480.0801       1166.8421      1034.1664      9326.3934    
     82000   295.92732      121.35084      485.02449      1155.9256     -2019.497       9350.778     
     82500   300.23088      124.07117      481.86409      1163.4774     -914.09038      9302.4721    
     83000   305.84738      117.31112      461.29352      1146.5769      3108.544       9092.2902    
     83500   304.02937      126.73324      476.14659      1167.476       1059.7461      9269.1168    
     84000   293.31884      111.83506      486.51166      1143.0529     -607.72242      8969         
     84500   304.26011      119.05505      471.27733      1155.357       1058.6196      9122.883     
     85000   299.88819      116.33684      478.24115      1151.4838     -70.394308      8941.7242    
     85500   301.19135      123.46846      474.93059      1157.7248     -280.61523      9240.4349    
     86000   305.85498      120.3508       476.27799      1164.6152      2037.6668      9202.1696    
     86500   292.77434      110.56161      506.84166      1161.0983     -2221.6903      9220.2263    
     87000   291.88849      122.77221      482.35767      1147.1798      1112.2622      9096.1903    
     87500   317.7956       123.94233      448.25523      1162.3582      3183.9452      9277.7175    
     88000   303.52408      120.46472      477.91685      1162.0393     -1642.1393      9205.0535    
     88500   308.67437      130.17245      461.44668      1164.8412      1530.9667      9259.2856    
     89000   298.82239      125.66683      468.4214       1149.0147      910.74115      8948.4335    
     89500   305.58251      126.29271      466.02414      1159.7972     -364.21837      9295.5917    
     90000   310.96012      115.02392      459.9212       1152.4119      1323.7962      9013.7507    
     90500   289.14071      108.98658      505.17079      1151.1046     -1055.4475      8977.2831    
     91000   294.62566      111.03792      500.4236       1158.5945      30.077562      8894.7655    
     91500   301.62056      113.84164      474.25925      1148.2237     -250.59035      9152.8698    
     92000   297.12589      111.93593      484.1987       1147.9107      554.8891       8782.5466    
     92500   297.68089      118.92902      486.66586      1158.4016      342.18193      8949.9754    
     93000   300.59522      108.76108      479.89276      1146.8726      657.41298      8980.2924    
     93500   300.93215      107.06208      484.4032       1150.3097     -2394.8994      8983.248     
     94000   307.30723      108.48343      472.80567      1151.9723      2961.723       8841.3822    
     94500   303.28362      111.2883       484.43985      1158.9394     -2003.0885      9032.1274    
     95000   285.48561      103.92108      518.07436      1152.155      -800.05749      9039.1058    
     95500   300.53514      118.42437      474.45002      1150.9816      2322.5306      8880.0669    
     96000   293.10473      126.58578      488.83304      1159.7274      1448.9465      8996.4665    
     96500   294.07534      115.24747      480.36062      1141.7191      144.47742      8730.4938    
     97000   295.76801      112.08958      498.08272      1159.4267     -753.73946      8880.626     
     97500   298.47866      118.79428      477.82584      1150.9083     -454.39133      8971.4032    
     98000   300.24545      112.43756      476.92383      1146.9306      860.55432      9149.4273    
     98500   295.72776      116.84412      490.77871      1156.8025     -1411.8526      9077.1554    
     99000   301.15139      114.53649      499.1278       1172.9159      1537.9985      9137.6326    
     99500   301.41297      111.04068      476.80078      1147.5788     -14.473162      8785.8036    
    100000   307.77488      113.29846      464.14537      1148.9955      1348.2154      8908.336     
    100500   291.18412      121.31494      502.22736      1164.2842     -4379.213       9268.2403    
    101000   306.37626      103.89911      476.47055      1149.3241     -803.13515      8892.7396    
    101500   315.99203      116.88113      447.21079      1150.9032      1476.7899      8879.6095    
    102000   290.18614      131.0183       490.99921      1160.9061      3798.5221      9211.5738    
    102500   297.4927       129.88013      487.49714      1169.8345      1791.8907      9429.747     
    103000   302.77608      104.08707      491.90823      1158.264       61.113857      9052.0548    
    103500   313.09379      116.10089      459.26971      1156.7997     -617.13371      8994.6107    
    104000   303.76549      113.40308      474.67102      1152.1802     -542.60215      8977.9932    
    104500   298.02892      121.56034      477.16733      1152.1807      864.83817      9079.2576    
    105000   287.33772      124.62099      496.84916      1155.0691      872.85113      9050.0111    
    105500   299.18289      124.09434      477.08607      1156.7764     -2411.8572      9220.5212    
    106000   293.63096      132.42695      495.22373      1172.9365     -1740.9778      9428.997     
    106500   297.06504      132.33287      475.94471      1159.9406      1652.522       9361.0895    
    107000   302.99388      126.24822      468.5058       1157.4272      900.5228       9164.6106    
    107500   307.60403      122.508        456.69352      1150.4359     -503.28089      9234.063     
    108000   305.54648      136.72782      462.85702      1166.9983      454.32928      9309.9748    
    108500   301.31946      125.80358      466.49288      1151.8602      2268.0948      9038.1333    
    109000   297.83105      121.45128      481.34093      1155.8778     -2244.0574      9189.068     
    109500   308.21622      132.1134       468.96005      1173.4447      1330.9427      9476.2357    
    110000   307.74912      138.04746      465.63896      1175.1903      1165.856       9700.3725    
    110500   308.19641      125.06604      467.3209       1164.7214      1506.0849      9307.6669    
    111000   309.64093      117.76195      451.35004      1144.129       1653.3501      9251.8091    
    111500   295.62951      130.11113      482.28021      1161.3885      227.8107       9292.4504    
    112000   313.53928      126.07913      446.3828       1154.7184      442.56027      9142.7339    
    112500   297.91694      141.67576      461.76732      1156.6882      1178.2254      9231.7993    
    113000   305.48791      123.84071      445.26485      1136.4102      1130.1697      9117.7031    
    113500   307.31063      129.43039      464.45904      1164.579      -2178.7748      9587.7212    
    114000   295.873        137.38358      474.90806      1161.741       358.44607      9417.4837    
    114500   303.281        127.15205      464.30598      1154.6644     -733.60575      9585.7125    
    115000   296.78409      136.41025      470.44873      1158.0003      1859.2468      9375.4135    
    115500   303.72552      141.81165      466.00973      1171.8532      1060.3187      9798.3811    
    116000   300.89371      133.28568      464.77283      1156.8316     -941.86828      9351.3731    
    116500   298.86235      125.2288       476.88769      1157.1172     -856.53309      9433.9591    
    117000   303.80569      128.79173      477.01844      1169.9909      258.92891      9683.385     
    117500   296.76365      137.39527      481.91124      1170.4099     -706.01396      9488.5441    
    118000   291.04559      128.49095      491.99311      1160.9687      85.677219      9247.1747    
    118500   307.77302      120.81917      462.55166      1154.9191      99.466886      9407.5416    
    119000   297.67924      126.80503      487.90181      1167.5105      1428.9403      9415.7208    
    119500   291.98621      131.33978      490.58358      1164.1548      232.13836      9337.192     
    120000   308.54473      138.77506      466.1954       1177.9518      212.9378       9436.6935    
    120500   297.76109      119.02704      491.99588      1163.9786     -1075.7139      9208.8633    
    121000   292.29878      126.36524      485.26486      1154.442      -35.725789      9408.0111    
    121500   305.5413       115.29995      474.38171      1157.0855      889.90649      9080.6514    
    122000   299.15505      136.97302      458.75368      1151.271       2229.7582      9285.4233    
    122500   300.9322       130.22634      474.00292      1163.0738      2963.6901      9414.7441    
    123000   290.76893      132.36708      502.09331      1174.4313     -3737.2442      9557.0209    
    123500   288.3064       128.04462      509.84525      1173.2877      1532.2069      9553.2927    
    124000   298.13868      119.48748      480.83564      1153.98       -1724.5535      8984.8847    
    124500   298.26423      118.31861      470.57492      1142.7835     -1185.8912      9238.6495    
    125000   293.76055      128.48749      497.03854      1171.0525     -1012.7431      9360.2739    
    125500   288.20592      119.12668      489.67182      1144.0098     -295.36645      9061.1455    
    126000   302.61338      120.20808      466.53268      1148.7073      116.96294      9210.8585    
    126500   307.83854      130.88799      458.30967      1160.8676      1244.5372      9394.3777    
    127000   290.83264      115.28299      503.68315      1159.0553     -926.79406      9220.9679    
    127500   294.05402      122.53         502.27678      1170.8782     -700.58041      9141.4658    
    128000   300.13826      115.49275      475.33477      1148.1977      881.66781      9208.733     
    128500   302.46278      123.51236      475.95659      1161.1558     -1.1357596      9326.0127    
    129000   301.47389      123.63568      465.10983      1148.596      -624.34514      9336.3841    
    129500   296.47771      121.34616      481.05556      1152.9741     -818.78696      8980.7622    
    130000   297.57795      117.37373      493.78577      1163.775       507.11994      9128.3366    
    130500   296.7746       119.88875      470.90053      1141.913       2223.7476      8775.7432    
    131000   289.57491      110.5626       499.38961      1147.7057     -896.4574       8959.7494    
    131500   305.74375      127.92131      473.55683      1169.2579      1200.8867      9370.2583    
    132000   296.83458      125.93712      484.98193      1162.1541      2642.7197      9318.8638    
    132500   302.57198      119.41519      460.00602      1141.3109      1129.0933      8973.5036    
    133000   305.22146      111.77921      467.59749      1146.1866     -1781.929       8930.6068    
    133500   299.56304      118.66122      489.15674      1164.1199     -4132.666       9270.8159    
    134000   291.84106      105.96047      499.09122      1147.0136     -1962.5003      8961.5353    
    134500   303.511        113.3381       485.63743      1162.609      -716.20247      9151.1228    
    135000   298.68919      93.808715      483.73164      1132.2195     -2343.6387      8890.0229    
    135500   294.94355      121.11673      481.42804      1150.2681      2098.2004      8892.4198    
    136000   290.57418      110.52687      498.67879      1148.8149      2767.5259      9007.383     
    136500   300.15628      113.37291      480.22381      1151.0003     -395.62667      8862.2846    
    137000   297.63871      108.98598      493.48699      1155.2013      384.23592      8982.7073    
    137500   311.91091      114.88252      461.74421      1155.8592      499.95565      9123.5854    
    138000   295.00471      121.91337      491.02707      1160.7774      1008.203       9046.4349    
    138500   299.40774      110.88107      491.04606      1157.9407     -4382.7902      9006.0397    
    139000   303.52139      108.13081      482.43814      1154.2217     -591.1999       8797.4881    
    139500   295.02928      110.31837      496.88675      1155.0877      1675.1648      8939.47      
    140000   310.48757      89.507894      475.68058      1141.7778     -1603.0675      8759.0488    
    140500   297.83075      107.40011      500.20214      1160.6873     -1303.0687      8925.4764    
    141000   297.9349       113.46393      501.69755      1168.4399     -490.60399      8900.2704    
    141500   297.97221      109.94751      487.15405      1150.4493      2178.822       8776.5804    
    142000   307.03585      117.61082      462.2402       1150.0303     -474.74217      8958.2893    
    142500   314.14065      104.62095      458.78924      1146.7834      2086.2012      8829.8271    
    143000   300.28895      106.94514      489.58302      1154.1782      290.49852      9016.5455    
    143500   302.1778       106.01861      481.81668      1148.9929      1108.9318      8800.052     
    144000   290.98987      102.85095      496.5546       1139.7867      1422.1931      8507.0399    
    144500   299.31802      109.22         488.7476       1153.8145      1771.0905      8679.1881    
    145000   299.15991      104.02642      500.73326      1160.313      -177.5122       8881.9571    
    145500   296.61602      112.49993      493.09802      1156.4271     -187.85119      9067.7677    
    146000   289.23283      114.45598      498.90246      1150.4767     -474.55658      9012.4511    
    146500   301.07737      105.46935      478.63746      1143.2209      2285.9061      8878.2166    
    147000   302.68512      114.19262      484.07564      1160.368       1491.8001      9277.6331    
    147500   319.97173      108.1444       455.55576      1157.9019     -23.532655      9330.0711    
    148000   298.06544      96.676761      499.75631      1149.9539     -2213.7216      8802.7848    
    148500   311.32145      115.81351      473.52826      1167.4796     -1547.0845      9000.3217    
    149000   302.04618      113.015        483.16152      1157.0898     -740.58969      9026.5842    
    149500   294.34393      102.59508      488.9271       1138.132       1918.9659      8717.4291    
    150000   293.54343      109.44484      498.84061      1153.4087     -1730.3835      8896.5582    
    150500   297.27         103.7562       500.43594      1156.2358      2258.4961      8964.8736    
    151000   296.58528      108.14268      494.42636      1153.3412      443.14194      8850.0821    
    151500   306.85454      111.91957      475.28265      1157.0448     -1093.9613      9017.5937    
    152000   292.17797      111.27891      501.55686      1155.4233      988.65002      9056.3644    
    152500   299.19316      115.74304      489.53379      1160.8919      70.357503      9057.2308    
    153000   304.85433      96.78747       485.69427      1148.6098     -949.37585      8883.3723    
    153500   306.01811      113.10554      476.65233      1158.0472      1254.7837      9149.2349    
    154000   303.94819      110.93629      477.72281      1153.1045      1588.6893      9213.1593    
    154500   305.82039      112.94084      474.33386      1155.1968     -1077.7074      9084.391     
    155000   309.95334      104.76891      462.53559      1142.9017     -225.59985      8823.5751    
    155500   302.57384      113.48789      463.11398      1138.495      -623.30678      8978.2242    
    156000   295.82364      105.11044      491.03646      1145.5046     -518.68197      8981.71      
    156500   298.54474      110.76207      483.69241      1148.8654      454.99434      8775.5347    
    157000   303.09523      117.83302      485.75507      1166.4495     -1947.278       9178.647     
    157500   300.68243      107.37208      489.14156      1154.8943     -1436.1041      8955.2279    
    158000   301.42071      104.89678      477.09527      1141.7438      2611.3148      8785.1813    
    158500   300.0572       118.25006      476.96399      1152.4337      462.39167      9001.3086    
    159000   296.71263      110.00815      496.86847      1157.8852     -1883.8895      8852.3688    
    159500   303.48415      102.50669      474.37112      1140.4614      96.552485      8933.2322    
    160000   299.26962      116.90987      491.87756      1164.5445     -1289.7128      9072.3825    
    160500   298.67432      114.35945      480.25325      1149.2643      187.59462      8935.5426    
    161000   292.42507      112.20867      508.21787      1163.4729     -1669.7164      9228.523     
    161500   290.93754      112.48831      502.9999       1155.7722     -1100.842       8978.3842    
    162000   301.35232      123.57252      465.93293      1149.1302      1641.0965      9261.4608    
    162500   311.84744      112.19565      458.88761      1150.1979      360.10306      9001.4597    
    163000   305.59958      101.39408      464.64669      1133.5528     -2406.3616      8813.7597    
    163500   294.35661      113.28965      505.84321      1165.7662     -2382.7779      8930.3752    
    164000   300.21481      117.149        481.42936      1156.0907     -2220.3921      9027.1098    
    164500   295.26126      116.82904      491.9811       1157.1235      718.69296      9060.7426    
    165000   296.81911      126.02795      479.66327      1156.8976      459.95811      9146.9207    
    165500   306.58309      108.87375      483.89443      1162.1067     -131.77549      9184.6803    
    166000   298.25857      110.44152      480.55888      1144.8799     -473.3048       8820.1878    
    166500   304.35642      126.02371      457.41855      1148.6457      2134.7939      9047.9379    
    167000   299.24217      117.03908      482.72929      1155.4744      2456.4506      8937.412     
    167500   291.94148      121.66191      483.46649      1147.2768      1033.053       8971.5855    
    168000   298.10503      111.284        494.38629      1159.2646     -828.07029      8784.3288    
    168500   301.8093       111.09293      491.13288      1162.6992      1987.9695      8997.7461    
    169000   290.42617      113.04079      494.1286       1146.5038     -1754.5401      9031.2539    
    169500   297.42939      107.82134      483.63504      1143.796      -85.36171       8667.2628    
    170000   291.30643      112.14397      500.79679      1153.9098     -523.34603      8869.4403    
    170500   292.22435      109.16628      498.92555      1150.7655     -425.53218      8994.7004    
    171000   296.79677      106.98057      495.40962      1153.555      -1499.8453      9041.8644    
    171500   303.99116      103.18676      480.37098      1148.0829     -270.52816      8900.3146    
    172000   287.77562      103.02629      496.19518      1133.6336     -2845.8426      8623.7651    
    172500   299.60191      105.53406      477.40762      1139.3158      648.55113      8866.6495    
    173000   306.54605      100.34396      482.5058       1152.1195     -3208.1172      8844.0708    
    173500   310.88716      93.821662      472.78263      1143.9356      11.618904      8664.8376    
    174000   289.71476      120.51272      494.01717      1152.5431     -647.58732      8981.7272    
    174500   300.83728      112.34803      480.3379       1151.3542      2900.9224      8719.3577    
    175000   305.65957      110.96639      477.26809      1155.858       621.24817      8840.7484    
    175500   294.92643      104.84011      492.18405      1144.7157     -1018.1026      8697.6448    
    176000   295.56733      112.69356      500.64013      1162.2154      140.83844      8869.7289    
    176500   295.42552      112.61117      501.06125      1162.2908     -1732.0318      8910.3607    
    177000   290.6487       104.86834      516.94035      1161.5563     -1847.1519      8925.0403    
    177500   292.42524      105.5325       502.46146      1151.0407     -2416.3003      8849.9443    
    178000   300.83688      110.33904      482.35363      1151.3602      1321.8007      8906.4634    
    178500   296.48303      111.18576      487.48584      1149.2538      761.88154      8876.3033    
    179000   308.50831      103.09707      485.89278      1161.9036      1913.3602      8897.8035    
    179500   300.22008      104.29757      492.2487       1154.0684      798.71702      8714.234     
    180000   307.7528       101.73072      472.52137      1145.7628     -1460.4861      8888.2311    
    180500   302.26472      110.77671      483.16939      1155.2652     -2843.9927      8848.3389    
    181000   295.26665      112.24024      496.0948       1156.6584      1437.7512      8862.8381    
    181500   294.81433      109.54975      499.70582      1156.7389     -537.94667      8736.1866    
    182000   296.92093      108.94084      495.65612      1155.9924     -2115.2508      8798.3344    
    182500   309.23181      92.365383      478.00777      1144.6304      1278.9181      8703.7403    
    183000   293.92429      107.49677      495.14121      1148.4685      2693.4232      8709.4806    
    183500   297.95789      104.23849      494.45969      1152.0193     -810.1124       8664.0767    
    184000   295.57931      99.725498      484.83933      1133.4688      3104.1158      8526.3724    
    184500   307.37322      103.33789      467.74034      1141.884       123.51729      8684.501     
    185000   298.42738      96.634001      491.63528      1142.4623     -658.1117       8755.7199    
    185500   300.86624      107.11604      484.83961      1150.6777      437.43471      8724.2848    
    186000   300.54111      100.69611      485.3792       1144.1936      2913.8208      8656.8606    
    186500   301.46208      103.68893      484.15884      1147.6763      2021.5113      8548.2257    
    187000   300.22069      104.03727      482.59805      1144.1586      114.5696       8537.2001    
    187500   295.64632      96.375365      493.96939      1139.3732      3403.4099      8458.9114    
    188000   291.1492       110.05045      492.64774      1143.3753      39.90072       8798.6425    
    188500   299.04707      102.21479      497.0231       1154.5817     -2054.6236      8984.1308    
    189000   308.37009      108.86676      463.16668      1144.6905     -1603.0053      8812.9402    
    189500   291.53075      115.3014       497.29717      1153.9842     -153.79494      8623.0348    
    190000   293.95669      115.24725      478.40747      1139.5454     -294.97471      8823.943     
    190500   299.91692      105.24235      489.31061      1151.5121      1551.033       8901.2237    
    191000   300.00619      103.09439      485.96581      1146.1851      586.10402      8834.8678    
    191500   303.02744      95.873024      489.54379      1148.1523     -1934.379       8957.2862    
    192000   303.82414      110.56473      473.55131      1148.331      -1233.0791      9140.2454    
    192500   295.26987      125.12072      483.04757      1156.4976      2762.7234      8940.9275    
    193000   286.64607      112.93947      503.71691      1148.9709      88.512536      9004.3788    
    193500   308.98907      101.53624      473.14846      1148.4912     -1907.746       8810.1351    
    194000   306.33071      130.09182      474.18378      1173.1454      985.85733      9237.0899    
    194500   303.74894      118.40707      485.76769      1168.2501     -262.34658      9283.5557    
    195000   297.98459      110.35525      477.37203      1141.098      -1021.0896      8715.8317    
    195500   305.06802      109.00554      484.76495      1160.2954     -1996.7196      9087.6208    
    196000   310.11502      103.76519      469.46048      1149.1231      700.21613      8964.4465    
    196500   290.61146      129.60585      485.84535      1155.1297      467.17821      9075.5537    
    197000   302.52288      120.13507      462.92545      1144.859      -625.42893      9056.5961    
    197500   295.92966      117.28152      486.4559       1153.292       233.92457      9138.8629    
    198000   305.14341      119.41923      471.87849      1157.9627     -2098.0345      9315.742     
    198500   305.72419      113.57113      469.02147      1150.3361     -89.516402      9056.4248    
    199000   309.19494      131.32503      454.2348       1159.7486      2161.2516      9080.6586    
    199500   308.36239      119.34723      468.25799      1160.2479     -738.86092      9154.9521    
    200000   302.50141      124.28631      476.40659      1162.4515     -1862.6453      9143.6763    
    200500   299.32835      109.27521      493.81439      1158.9557     -2159.3956      8925.2429    
    201000   297.27412      126.791        492.3992       1171.2415     -28.76818       9314.3435    
    201500   304.40453      109.59542      465.03122      1139.9194      1353.8941      8860.0775    
    202000   296.66221      113.62962      486.83207      1151.3767      2078.0188      8793.3342    
    202500   307.10443      107.46538      474.51188      1152.2839     -3744.1289      8776.8944    
    203000   294.02842      114.05218      482.21759      1142.2937      2675.6058      8958.8199    
    203500   314.00923      114.09655      457.88801      1155.1137     -1169.8384      9042.9827    
    204000   301.11111      118.53315      468.7175       1146.4274      3336.0976      8975.1796    
    204500   298.76701      123.26087      489.39376      1167.4783      203.77402      9327.6386    
    205000   296.16021      118.14482      491.20169      1159.3292     -1700.0662      9106.7695    
    205500   299.55137      127.12033      463.5762       1146.9768     -750.63395      9075.1537    
    206000   297.59577      138.4656       482.64751      1173.7617     -2061.0396      9153.0796    
    206500   300.68171      119.16596      462.59069      1140.136       1236.4629      9112.668     
    207000   295.90525      133.24323      469.9501       1152.7026      737.94837      9300.5381    
    207500   288.75988      132.47899      506.72655      1175.4455     -419.75183      9445.7349    
    208000   302.1188       114.20457      464.90444      1140.1571     -2148.1932      8997.6515    
    208500   300.33702      126.71379      475.34826      1159.8013      2161.145       9208.4298    
    209000   293.33953      124.64133      490.95949      1160.3454      1560.6223      9106.0695    
    209500   309.03837      108.86159      469.61462      1152.3743     -33.638718      8946.5332    
    210000   296.10409      117.49585      485.07107      1152.4454     -1187.5449      9132.0606    
    210500   304.6115       126.23029      475.88069      1167.7881     -674.89031      9300.6759    
    211000   295.52351      132.29293      486.60193      1167.6952      1535.3306      9345.2618    
    211500   293.44446      136.33548      487.83328      1169.1082     -608.92164      9323.6796    
    212000   303.9645       124.01352      456.01147      1144.5006     -1127.6012      9062.4598    
    212500   300.4381       130.19107      467.14052      1155.2586      367.86789      9254.9947    
    213000   298.90721      132.4143       481.72575      1169.2241     -1756.8565      9401.851     
    213500   304.3409       133.31301      466.29287      1164.7805     -1481.7855      9530.8949    
    214000   307.01344      142.03131      472.23211      1184.4011      198.62213      9649.8784    
    214500   320.47397      135.92786      443.64755      1174.7099     -1970.4611      9853.4016    
    215000   300.68601      136.92772      466.4215       1161.7366      657.99387      9433.9403    
    215500   303.66837      129.81502      472.03766      1165.7784      3262.6834      9360.836     
    216000   311.05874      123.39786      461.79856      1162.8464      527.86924      9310.8364    
    216500   291.37682      145.24568      486.94112      1173.2866     -536.13145      9803.4856    
    217000   306.53577      143.06949      470.63888      1182.959       1218.8699      9631.6357    
    217500   303.55446      117.96527      468.61233      1150.2918     -102.65854      9010.7053    
    218000   297.44568      121.11319      483.7202       1157.2033      1468.8694      9157.8546    
    218500   307.88177      126.15298      445.78192      1143.6851     -32.717688      9338.5535    
    219000   297.01757      124.23047      477.43616      1153.2415     -657.39674      9274.4543    
    219500   296.75761      127.73448      492.40207      1171.2287     -1275.5262      9630.3835    
    220000   302.72742      118.10942      483.65715      1163.9449     -2520.6584      9143.2461    
    220500   304.71728      129.0263       448.22817      1143.1281      1285.2255      9361.661     
    221000   294.84132      122.17871      481.58906      1151.3013     -524.7748       9086.2741    
    221500   307.17427      125.64434      461.48463      1157.5653     -2076.6337      9225.6674    
    222000   295.01221      140.81186      476.52981      1165.1925     -182.50679      9491.4329    
    222500   299.44526      135.81176      461.28946      1153.1844      4587.3751      9493.7914    
    223000   296.15969      135.30444      478.07154      1163.3578     -115.2175       9388.0143    
    223500   303.77447      125.03903      467.97551      1157.1373     -982.87624      9433.2913    
    224000   298.23829      121.70167      468.98947      1144.533      -2742.1893      9276.3655    
    224500   305.66576      131.24008      464.32832      1163.2034      1281.2996      9354.9521    
    225000   295.3978       119.75839      482.93684      1151.2621      986.24907      9259.8212    
    225500   295.07298      100.7934       491.56982      1140.3269     -623.23515      8967.1389    
    226000   305.86522      123.33618      452.0018       1143.3434      1043.0421      9068.7138    
    226500   294.83843      125.63345      495.22027      1168.3818     -2972.2234      9139.5909    
    227000   294.0249       110.55991      489.25635      1145.8336     -2158.4604      8963.2203    
    227500   299.68816      111.94412      473.98476      1142.4632      1235.1045      8849.8273    
    228000   308.69153      118.21936      454.97657      1146.4499     -838.50307      8882.5982    
    228500   292.72647      122.14228      480.30342      1146.0518      534.84867      9176.0381    
    229000   304.99399      122.11684      479.98396      1168.4883     -907.37252      9176.5744    
    229500   306.01478      130.91339      469.21798      1168.4145     -900.64331      9514.9673    
    230000   295.08333      129.21214      485.54306      1162.7381      47.040508      9444.9672    
    230500   300.51471      128.9914       475.65322      1162.7139      37.716635      9283.7812    
    231000   299.99922      123.96631      467.40979      1148.4881      311.84882      9094.2781    
    231500   304.82003      131.6691       474.85454      1172.588      -117.37856      9488.0249    
    232000   305.20534      133.9736       468.54904      1169.3026      375.19664      9340.6613    
    232500   299.61138      116.9549       488.09653      1161.4431     -2651.7264      9189.0732    
    233000   297.00818      129.09576      480.35135      1161.0046      1109.2899      9350.5802    
    233500   302.70681      116.96462      477.41339      1156.5181      11.615636      9078.9629    
    234000   303.76347      125.33908      469.61592      1159.0573      482.28133      9395.4022    
    234500   306.92622      132.49183      466.82773      1169.2952     -3577.863       9625.5472    
    235000   296.95978      127.93269      476.79259      1156.1929      3498.0323      9455.0335    
    235500   293.03928      129.88906      487.65805      1161.7341      292.3512       9433.3105    
    236000   304.07637      117.94117      468.56343      1151.188      -1815.1108      9274.7598    
    236500   298.33029      119.91278      485.38194      1159.3074     -4381.0717      9366.0601    
    237000   305.43676      134.44967      463.85724      1165.5166     -1615.4384      9392.3505    
    237500   289.02859      132.37607      479.22762      1148.3427      4099.4848      9180.0445    
    238000   288.37916      125.22865      493.4642       1154.2258     -2268.6706      9232.6567    
    238500   297.34857      114.7908       478.56273      1145.5431     -1562.1306      9033.7793    
    239000   292.0446       135.02926      482.78019      1160.1493      1510.3902      9263.6474    
    239500   311.07523      135.21306      441.0403       1153.9339      1638.9528      9503.1349    
    240000   297.26727      132.4696       479.63629      1164.1445     -2106.7729      9425.9457    
    240500   297.84282      135.3225       461.62858      1150.0585     -2455.2327      9520.8728    
    241000   307.32091      136.4092       458.69248      1165.8103      356.43577      9681.1589    
    241500   308.46259      133.57685      450.42027      1156.8259      915.31704      9516.5151    
    242000   292.82767      121.21444      469.53798      1134.5465      375.48936      8929.4448    
    242500   305.80245      109.89312      443.2356       1121.0175     -61.506569      8704.7512    
    243000   302.20271      124.82601      456.59142      1142.6214      225.22088      9118.8601    
    243500   295.69476      132.48325      477.65966      1159.2613      445.18623      9220.8357    
    244000   300.11519      129.14587      469.06336      1155.5365      94.687107      9307.6997    
    244500   291.17374      134.32196      463.82355      1138.8681      2293.9099      9195.8754    
    245000   294.68245      119.74135      482.61598      1149.5958     -405.73477      9118.4307    
    245500   298.20219      127.0081       472.7148       1153.4977      217.94678      9289.1478    
    246000   305.89623      136.21136      452.00083      1156.2752      3460.59        9363.4682    
    246500   293.72997      132.99896      475.65501      1154.1236      2729.6952      9145.7113    
    247000   319.21333      128.25041      434.22398      1155.2678      49.511017      9382.2519    
    247500   296.28707      136.94056      460.12127      1147.2801      2396.5997      9326.6583    
    248000   301.74051      130.4711       478.57813      1169.3948     -466.40197      9706.0385    
    248500   293.81628      119.71273      470.52682      1135.8695      418.13757      8925.4551    
    249000   295.88701      136.06938      467.81684      1153.3616      483.7052       9410.7024    
    249500   297.02843      128.67707      482.00129      1162.2734     -1308.1962      9500.5138    
    250000   290.10466      135.75775      499.16873      1173.6638     -249.39489      9535.8801    
    250500   299.7909       142.17554      464.57307      1163.4737     -360.86713      9579.1071    
    251000   296.24535      135.35664      462.9377       1148.4352      458.50899      9366.0464    
    251500   301.07539      127.38107      470.06665      1156.5582     -2226.962       9297.6299    
    252000   296.1263       141.08506      485.78814      1176.793       257.91236      9603.71      
    252500   302.58227      121.31442      467.72029      1150.9435      39.343133      9308.3247    
    253000   287.82265      147.36042      476.70694      1158.5669      2780.485       9643.8081    
    253500   305.84365      144.28168      469.14969      1181.3967     -72.053504      9936.7675    
    254000   299.40395      131.51271      478.4833       1166.0025     -677.9157       9593.9095    
    254500   295.88442      135.17483      472.45578      1157.1012     -2358.9711      9554.92      
    255000   309.58087      124.31858      462.71305      1161.9371      1019.4151      9509.1291    
    255500   306.01814      146.72312      454.02072      1169.0332      1381.0195      9466.8484    
    256000   307.75478      123.47663      453.90876      1148.8998     -696.08987      9258.7299    
    256500   300.40179      132.70105      476.51236      1167.073      -2521.0798      9562.8473    
    257000   303.19246      137.68411      455.74618      1156.4722      2304.5279      9466.7962    
    257500   287.8234       146.87608      490.62607      1172.0031      2635.4797      9353.3705    
    258000   304.26734      139.72313      467.26571      1172.0269     -307.5617       9535.7771    
    258500   297.23534      127.93704      479.01351      1158.9298     -2008.6232      9248.6987    
    259000   298.41906      126.33074      485.05223      1165.5605     -892.20329      9195.2082    
    259500   305.89591      121.23203      460.33368      1149.6281     -811.82555      9396.4753    
    260000   305.57622      126.08458      454.91543      1148.4687     -1402.587       9251.8955    
    260500   291.7902       139.66963      468.74296      1150.28        2711.9031      9416.4346    
    261000   298.72809      130.32318      484.03951      1169.1141     -2705.5469      9598.4142    
    261500   291.00904      158.5055       473.94252      1172.8648     -94.904151      9935.5643    
    262000   306.05611      148.8617       441.1658       1158.3874      2424.0317      9610.096     
    262500   307.57556      133.56096      466.40086      1171.1434      627.83376      9673.1837    
    263000   299.09413      139.64346      473.99566      1169.0703     -565.3679       9880.0837    
    263500   301.8576       132.24198      469.66065      1162.4657     -421.45312      9475.3232    
    264000   288.93142      131.38831      491.45549      1159.4024     -1478.9003      9425.3395    
    264500   283.28065      152.24694      495.38698      1173.6987      806.80717      9495.0247    
    265000   292.96791      133.0087       475.70387      1152.7671      142.23023      9160.4875    
    265500   295.24471      138.15088      475.00959      1161.4431      1470.8929      9408.3339    
    266000   306.1881       132.26447      467.66109      1168.5305     -1021.5448      9585.0402    
    266500   287.06358      136.1535       509.20032      1178.4437     -913.58075      9530.1122    
    267000   299.93062      129.07589      462.23379      1148.2942     -2751.8722      9492.9353    
    267500   302.73324      134.90176      458.00276      1155.0937     -1152.9541      9499.2537    
    268000   290.87108      144.62017      492.10466      1176.8854     -287.55145      9814.8147    
    268500   300.51432      134.78967      456.21549      1149.0737     -1615.6518      9572.9583    
    269000   310.21539      137.51539      438.87092      1152.4701      1696.3475      9509.8201    
    269500   292.1343       133.98681      469.49548      1145.9887     -124.23031      9260.5802    
    270000   303.94759      136.00933      470.03164      1170.4852      622.60664      9621.4164    
    270500   306.92301      141.01729      459.98279      1170.9698     -251.22414      9698.294     
    271000   298.80815      134.18033      469.25145      1158.3319      1096.2717      9499.3116    
    271500   293.59807      154.83267      474.12612      1174.1835      546.39871      9858.2555    
    272000   286.7998       152.55624      469.62919      1154.7855      50.013679      9628.1984    
    272500   295.4708       139.89945      459.57464      1148.1766      1193.2243      9429.3621    
    273000   299.84614      146.38986      459.50569      1162.7232      1674.6585      9798.0218    
    273500   304.04582      141.0804       464.36277      1170.0698      1731.3438      9801.962     
    274000   309.05793      136.14951      443.13062      1153.2145     -1422.2472      9573.4333    
    274500   306.15947      143.57773      445.44545      1157.575      -1895.361       9633.3416    
    275000   305.00362      145.52144      474.06789      1185.9947      940.21119      9836.4521    
    275500   295.90824      143.67267      468.2801       1161.4676      610.49195      9442.7799    
    276000   307.43036      133.95134      447.09166      1151.9549      1819.7042      9430.322     
    276500   287.20343      135.20477      482.83262      1151.387       496.51135      9214.0089    
    277000   302.79092      147.60625      452.92212      1162.8246      41.846647      9603.8036    
    277500   303.0715       150.07971      469.08497      1181.982       2443.8683      9803.4725    
    278000   312.85416      146.70064      437.43247      1165.1172      1981.8509      9836.609     
    278500   298.12702      151.52462      455.20732      1160.3671     -552.75539      9627.1846    
    279000   303.66763      137.3745       456.445        1157.7439     -831.48458      9600.9212    
    279500   299.88538      144.16548      459.46748      1160.5335      3121.2943      9673.7643    
    280000   299.50096      140.97543      483.96092      1181.123      -1423.6281      9916.4162    
    280500   314.68447      137.97053      451.66878      1174.0224      613.74672      9602.1541    
    281000   298.02136      136.87812      475.86288      1166.18       -1596.7456      9526.3679    
    281500   298.73174      139.77345      469.67832      1164.2099      1992.0901      9606.6731    
    282000   304.77399      140.83957      459.95932      1166.7778     -378.13379      9650.8384    
    282500   307.40043      134.95249      462.07016      1167.879      -2450.7576      9654.0717    
    283000   306.00373      134.41517      461.07253      1163.7503      1186.665       9449.714     
    283500   283.39742      157.50524      491.08477      1174.8717     -804.58245      10065.225    
    284000   301.15443      142.08366      467.42619      1168.7671     -2495.7018      9770.8723    
    284500   285.19759      151.74714      490.4115       1171.7833     -1712.791       9941.2267    
    285000   311.01576      155.89055      439.06263      1172.5233      1498.1087      9878.0622    
    285500   297.38162      155.7752       471.11611      1179.1423      171.53163      10048.746    
    286000   297.60423      160.00137      473.55118      1186.2169     -210.58463      10075.882    
    286500   291.79037      148.53259      475.36222      1165.7626      395.03247      9616.7397    
    287000   303.7667       145.43999      452.59306      1162.1414      793.04174      9706.1772    
    287500   306.98374      142.98696      441.15698      1154.2265      332.77478      9655.7834    
    288000   296.00851      143.92786      473.36144      1166.9903      461.4          9711.2441    
    288500   298.11113      145.31295      469.95593      1168.8746     -1972.4211      9793.8864    
    289000   315.24812      145.42562      436.62849      1167.484       2915.0825      9567.0379    
    289500   296.66617      141.04747      465.83741      1157.8072      3230.9688      9590.6003    
    290000   280.7219       137.55933      497.66692      1156.5394     -2140.8421      9591.872     
    290500   297.52854      138.84037      486.124        1177.4882     -355.91497      9619.8369    
    291000   296.11644      131.74171      474.39787      1156.041       901.85868      9419.8916    
    291500   292.89014      137.10404      481.15495      1162.1691      349.26149      9687.6586    
    292000   305.82254      128.51293      477.75153      1174.1906     -3332.4496      9799.1845    
    292500   291.01956      144.02608      483.82714      1168.2895      323.14234      9626.1449    
    293000   280.09439      148.21704      505.3018       1173.6666      194.37478      9735.8507    
    293500   307.02294      131.92201      463.49656      1165.5739     -3250.975       9479.9946    
    294000   291.39765      144.81985      488.7401       1174.6984     -2042.9177      9580.043     
    294500   301.46979      136.56891      456.02116      1152.4329      2166.0175      9367.0365    
    295000   300.10343      139.38152      462.94965      1159.6367      1150.3814      9436.5311    
    295500   291.53511      125.3298       494.9124       1161.6359      333.0464       9305.9183    
    296000   297.0164       128.91153      474.69014      1155.1744     -992.20114      9377.3893    
    296500   299.36557      140.77677      468.7951       1165.5071      1831.1777      9447.412     
    297000   305.73648      148.14978      455.28773      1171.2038     -1304.0709      9806.1288    
    297500   300.31837      144.03728      467.59918      1169.3411     -686.66213      9703.6533    
    298000   303.67777      125.40928      464.74748      1154.0999      635.33658      9413.3659    
    298500   298.64565      150.51709      471.08655      1176.2019      245.57866      9700.5704    
    299000   302.7231       147.01185      460.02244      1169.2046     -703.44459      9802.5263    
    299500   292.58707      139.588        477.065        1160.0003      1468.2909      9381.9779    
    300000   304.93452      137.58607      453.08806      1156.9512      281.68744      9591.5136    
    300500   303.363        133.39361      479.75987      1176.5121      366.1081       9573.2523    
    301000   304.95142      135.07552      456.22204      1157.606      -2115.1489      9499.7513    
    301500   293.51978      130.95374      477.98926      1154.0223     -15.44045       9503.2956    
    302000   300.91113      141.28197      463.6289       1163.7163     -1065.6006      9757.5222    
    302500   295.01464      140.21326      465.95768      1154.0263      1031.8594      9311.9967    
    303000   299.68558      135.82553      467.21849      1159.5735      2251.4787      9434.5537    
    303500   295.14602      137.97767      469.82515      1155.9022      2580.099       9853.886     
    304000   297.49087      142.45596      477.43045      1172.3402      93.376362      9862.7992    
    304500   300.83331      143.79496      466.71407      1169.1699     -1738.617       9743.2404    
    305000   310.05642      140.97276      445.337        1162.0984     -1586.1101      9610.3266    
    305500   306.28322      134.28253      458.72269      1161.7868      2652.4348      9392.6736    
    306000   288.68463      162.12161      486.91908      1185.1409      1911.7023      9919.1903    
    306500   303.02957      149.6153       451.77148      1164.1262      2233.951       9462.6413    
    307000   305.15483      130.54585      442.26586      1139.4979     -910.10861      9299.3667    
    307500   300.68734      135.79508      480.52122      1174.7061     -64.981495      9498.1281    
    308000   309.48719      123.35625      455.7007       1153.7885      642.61632      9360.2675    
    308500   301.52881      148.8882       453.39157      1162.2322     -366.677        9965.1994    
    309000   308.69479      124.99953      457.59014      1155.8497      5.9207814      9575.7154    
    309500   300.55114      142.13966      462.00259      1162.2791      771.02336      9676.0499    
    310000   301.32131      145.6153       464.93079      1170.1132      264.2364       9629.9942    
    310500   291.75415      118.40611      484.58027      1144.7869     -3694.7247      9008.2432    
    311000   306.51637      132.04535      457.61336      1158.8733      2320.935       9449.1829    
    311500   298.73372      134.02721      473.80042      1162.5895      606.38615      9393.2928    
    312000   303.11381      131.27469      464.16696      1158.3375      3653.1936      9283.9558    
    312500   306.75347      116.32321      460.61059      1146.5887     -3806.7781      9303.5517    
    313000   293.59641      119.87187      481.81517      1146.9087     -692.17237      9054.228     
    313500   295.0373       130.78622      480.72847      1159.4121      1260.3425      9315.0832    
    314000   289.31617      129.36424      505.20038      1171.8377      620.01812      9356.3402    
    314500   291.24293      121.73267      496.39697      1158.9808     -789.24187      9280.3898    
    315000   293.29746      122.56683      493.02532      1160.2586      1410.2618      9237.4528    
    315500   296.12063      124.63914      470.75073      1145.2991      927.59949      9072.909     
    316000   296.55282      122.70747      475.03749      1148.4568     -729.41379      8871.6876    
    316500   299.10479      121.80091      476.32417      1153.576       2500.9256      8968.4663    
    317000   298.52132      120.88919      468.86523      1144.1218      1151.4879      8995.9618    
    317500   302.5145       111.8066       474.22957      1147.8191     -2609.7865      9080.7286    
    318000   302.52199      109.70653      478.26992      1149.7733     -1966.9033      9023.0048    
    318500   304.51558      134.38964      471.71474      1171.6034     -578.98344      9348.2901    
    319000   299.86974      116.10171      470.98197      1143.9552      130.18391      8838.7234    
    319500   305.67755      129.49719      456.29925      1153.4533      1843.7066      9100.1712    
    320000   316.17671      122.59037      450.54876      1160.2934     -302.19194      9238.3146    
    320500   301.12842      123.71803      471.28214      1154.2091     -1427.5092      9392.2106    
    321000   306.36696      113.69822      458.91464      1141.55       -232.19081      8884.9594    
    321500   296.34695      130.16075      480.6249       1161.1152      2299.0114      9229.2064    
    322000   304.98394      124.33083      462.18069      1152.8803      2703.7767      9111.7242    
    322500   297.22041      120.54096      485.25588      1157.7484     -463.7436       9381.155     
    323000   303.53889      116.98453      471.17521      1151.845      -1829.8235      9274.6954    
    323500   315.0786       128.33567      447.48862      1160.9393     -59.038675      9204.1287    
    324000   302.08945      130.82133      484.54946      1176.3644     -453.68887      9748.6692    
    324500   285.83889      136.66582      509.08278      1176.5642     -1811.7958      9370.2894    
    325000   294.10049      150.94405      469.72022      1166.822       4577.3982      9415.7069    
    325500   292.48389      138.49687      496.17284      1177.8254      818.55868      9638.9155    
    326000   295.90429      120.57768      480.81339      1150.8986     -1332.5331      9453.3868    
    326500   297.23589      128.90687      480.09444      1160.9816     -272.67802      9299.8904    
    327000   291.07477      135.05841      472.57708      1148.1743     -1.9203669      9337.1653    
    327500   290.95233      144.05341      494.00732      1178.3722      876.70892      9552.2351    
    328000   302.53228      124.74588      471.27446      1157.8363     -368.6504       9135.9481    
    328500   293.98084      136.79204      467.84968      1150.5773      502.6196       9288.2284    
    329000   298.2194       145.24777      467.51288      1166.5674      1122.5626      9563.974     
    329500   295.84523      132.65375      471.47608      1153.5276      1171.9008      9415.1472    
    330000   296.67572      138.44587      476.11375      1165.4997     -3259.5793      9624.1355    
    330500   296.5475       123.94712      472.24951      1146.8986     -210.09387      9155.1399    
    331000   298.42968      138.49492      476.21551      1168.9077      3310.3256      9495.3858    
    331500   311.26996      128.17603      471.59372      1177.812       1660.8817      9753.5905    
    332000   300.54738      143.30308      482.66257      1184.0956     -1743.895       9481.6871    
    332500   293.08992      127.22907      489.6778       1161.1879     -1421.2655      9365.4298    
    333000   299.12477      132.35299      475.35885      1163.1999     -1231.7756      9571.477     
    333500   306.34383      140.0941       458.66459      1167.6529      1987.051       9691.2492    
    334000   295.11291      143.88739      486.51058      1178.4358      2482.2979      9601.874     
    334500   301.92173      146.21032      452.80875      1159.7012      3.5886502      9577.8865    
    335000   306.58368      133.9358       453.92418      1157.1996      1007.9824      9634.2696    
    335500   297.26945      137.57066      467.10729      1156.7206     -1831.9217      9676.7566    
    336000   298.59966      133.78243      466.82732      1155.1227      2637.2962      9113.9542    
    336500   298.46815      150.00167      474.66137      1178.9317      1178.5531      9603.9268    
    337000   298.78484      123.21871      489.73268      1167.8082     -130.99118      9327.1291    
    337500   302.03936      122.68397      456.79819      1140.3827      1016.8607      9221.7636    
    338000   290.78924      132.10387      494.03066      1166.1431     -2819.956       9367.1621    
    338500   301.18501      132.80702      473.15833      1165.2794      1490.4812      9300.0065    
    339000   297.74292      132.0883       472.6009       1157.6111      875.32406      9137.0385    
    339500   298.94453      140.14045      470.7828       1166.0766     -292.68021      9435.8978    
    340000   289.82442      133.49453      482.91865      1154.6301     -1825.3639      9372.954     
    340500   295.09436      128.0394       479.53155      1155.5744     -614.19806      9272.9244    
    341000   299.97648      135.76787      469.51483      1162.3524     -655.28161      9315.6417    
    341500   290.90866      123.76277      505.46759      1169.4607     -1030.5681      9459.4864    
    342000   300.78622      135.04236      482.31231      1175.9281      1879.9341      9503.6497    
    342500   311.83019      126.17372      451.96442      1157.2207      1065.0474      9311.0253    
    343000   310.31551      126.386        465.33348      1167.9892     -827.36682      9320.454     
    343500   296.35906      139.99169      487.79685      1178.1406     -1560.5999      9581.5109    
    344000   311.02266      129.82216      455.1741       1162.5792      1364.3426      9453.4969    
    344500   299.04287      110.81568      475.09124      1141.2429     -2182.7917      8908.9813    
    345000   307.34924      129.77901      468.02497      1168.5652     -917.64028      9299.1792    
    345500   295.76231      140.60587      466.18481      1156.0345     -1056.09        9367.216     
    346000   297.66168      136.38721      489.19897      1178.3572     -319.69096      9685.8117    
    346500   308.38225      129.3262       458.3782       1160.384       1131.4592      9462.598     
    347000   300.89754      130.78205      468.70231      1158.2645      1233.0231      9211.3868    
    347500   299.32107      135.70753      472.3519       1163.912      -225.94297      9482.5535    
    348000   299.50566      133.10566      482.82387      1172.1249      1922.2568      9533.9271    
    348500   304.33881      139.82141      466.074        1171.0662      3120.6644      9583.5116    
    349000   305.93681      126.37475      465.90621      1160.4193      1033.4481      9328.5226    
    349500   305.68373      139.33165      463.89808      1170.8981     -649.82383      9475.6612    
    350000   306.77594      119.39956      476.59825      1165.6944     -1656.7375      9328.8317    
    350500   290.1482       140.76665      482.32857      1161.9134     -1415.7694      9404.4926    
    351000   306.8872       140.3448       464.77754      1175.0256      1826.1655      9384.8945    
    351500   305.24217      138.74049      456.72313      1162.312       1197.2579      9393.6468    
    352000   300.01645      125.68584      470.99907      1153.8289      213.16198      9298.201     
    352500   301.53494      130.60792      464.95582      1155.5276     -1725.0998      9289.3084    
    353000   303.88465      120.08781      480.81821      1165.2334     -3493.0014      9490.8787    
    353500   308.81572      125.59327      463.36018      1162.438      -977.80456      9287.055     
    354000   300.73828      126.62334      467.34274      1152.4505      1787.5133      9027.4217    
    354500   288.53176      127.4749       506.92056      1170.2118      50.968195      9312.9159    
    355000   302.01465      121.33485      463.60501      1145.7945      815.35169      9160.7201    
    355500   298.16622      126.95692      479.62833      1160.2933      82.206878      9295.0852    
    356000   296.49472      129.6888       473.31613      1153.6089      1589.0965      9229.8152    
    356500   299.0205       130.51108      488.44032      1174.2458     -2055.9695      9311.708     
    357000   295.84802      125.32386      473.3933       1148.1202     -1790.8595      9125.9687    
    357500   297.77637      117.33212      486.65666      1156.9728     -1689.4041      9410.443     
    358000   309.28756      127.94184      445.80913      1148.1118      1173.2509      9054.026     
    358500   307.54609      115.12296      458.84014      1145.0899      1324.4924      9091.984     
    359000   295.23378      125.63703      493.21429      1167.1136     -5036.8607      9479.2001    
    359500   298.90747      126.20502      470.31677      1151.6063     -644.18816      9397.5932    
    360000   304.74631      126.61269      467.60251      1160.1427     -522.31685      9145.0303    
    360500   302.54965      135.88678      470.86184      1168.5968     -1201.3078      9475.6576    
    361000   296.66152      124.85887      488.17872      1163.9513     -4225.2438      9178.1254    
    361500   303.53379      134.09611      464.45772      1162.2296      92.572023      9268.2916    
    362000   297.58357      135.8414       479.91877      1168.3861      2992.3117      9367.9679    
    362500   298.02266      127.0707       493.73666      1174.2487     -2264.2914      9427.0425    
    363000   302.73582      130.57885      466.42405      1159.1968     -179.5965       9186.8121    
    363500   300.59973      139.98377      462.39879      1160.6097      2366.999       9498.6728    
    364000   295.63687      143.34442      489.09909      1181.4544      59.527445      9443.0665    
    364500   313.08471      125.73647      448.17072      1155.3195     -817.01434      9352.5377    
    365000   315.2814       126.37302      454.08875      1165.9534     -1744.4911      9498.9131    
    365500   296.45997      117.945        480.97744      1149.4618     -788.43675      9073.6408    
    366000   296.23063      127.87544      490.02387      1168.0128     -326.75476      9379.384     
    366500   301.79425      128.37041      468.53858      1157.3544      619.4939       9285.3314    
    367000   310.57347      103.62601      455.34752      1135.7223      88.133996      8893.8067    
    367500   285.88559      144.11876      482.19455      1157.2156      1490.8552      9124.2354    
    368000   299.68702      112.89184      480.41201      1149.836      -575.33831      9174.0504    
    368500   296.15312      131.28235      475.27378      1156.5257     -171.87385      9364.9876    
    369000   310.63276      124.42849      459.54063      1160.828       2206.4423      9220.433     
    369500   301.95547      117.33411      471.03972      1149.1186      1317.5635      9170.6922    
    370000   295.09786      108.31593      480.90256      1137.2284     -1724.1923      8889.6337    
    370500   299.42705      118.59355      470.28914      1144.9321      162.25727      8902.2169    
[...]
   1913500   299.77905      116.6408       449.90682      1123.2507      1327.7826      9130.24      
   1914000   301.12183      94.195846      458.26752      1111.6601     -770.52793      8898.9169    
   1914500   304.09928      101.70711      454.58637      1121.0194      1216.9411      9118.9042    
   1915000   297.19777      96.427151      457.78954      1106.1262     -135.21716      8822.599     
   1915500   299.76396      102.51139      453.32142      1112.5079      2652.095       8881.7899    
   1916000   295.56348      109.27185      449.30967      1107.4561     -708.08215      9072.5153    
   1916500   298.33914      107.36429      457.10125      1118.4946      265.63529      9036.5323    
   1917000   302.90261      99.985796      443.57656      1106.066       1549.2542      8844.9893    
   1917500   306.8442       95.656213      445.62354      1111.1031     -1431.9053      8891.0371    
   1918000   293.96744      108.45594      463.92007      1118.2867      1430.4311      9017.7145    
   1918500   304.73504      101.46241      434.31706      1101.6861      1850.7572      8715.0465    
   1919000   293.32002      99.0705        470.66985      1114.4487     -506.11587      8883.1698    
   1919500   289.32294      100.62516      471.40469      1109.3155     -4678.3628      8779.1118    
   1920000   294.44715      100.51424      463.37003      1110.6858     -425.96726      8923.8113    
   1920500   299.99551      103.95644      446.80211      1107.8636      1388.305       8819.1127    
   1921000   295.76717      99.169661      472.24477      1120.6673      1573.1559      8911.2462    
   1921500   294.37638      101.16521      464.1665       1112.0018     -64.291369      8908.8631    
   1922000   294.78737      98.484653      469.3671       1115.2851     -1584.0049      8838.2624    
   1922500   294.23692      103.84715      468.79697      1119.0552     -8.6588329      9091.3129    
   1923000   291.5709       95.647033      459.02142      1096.1286     -1794.7531      8941.1148    
   1923500   305.76189      93.769128      451.8629       1113.4455     -2829.6133      8859.0283    
   1924000   314.71028      102.99092      429.03607      1116.458       1531.1061      8768.0323    
   1924500   307.6024       110.1325       424.81856      1106.1825      1039.2726      8867.2941    
   1925000   303.74787      103.3473       446.08395      1113.5046     -834.91013      9167.6162    
   1925500   305.0168       94.882251      442.9512       1104.2633     -310.01138      8809.3621    
   1926000   315.34232      83.813991      426.2684       1095.6872     -97.576601      8606.7856    
   1926500   299.50582      103.36012      444.21698      1103.7728      1288.1342      8840.3143    
   1927000   284.94946      105.87161      479.89346      1114.9289     -1644.8057      8866.7503    
   1927500   290.5459       105.35947      451.80786      1096.724       153.18217      8744.1102    
   1928000   307.35863      105.64672      429.02347      1105.4489      1571.6316      8913.3759    
   1928500   305.335        98.435582      442.68445      1108.1408      137.93352      8955.5504    
   1929000   296.03535      108.83913      450.31922      1108.9092     -812.81647      8990.4149    
   1929500   300.39725      108.51964      447.72255      1114.0933     -1370.5001      8961.8124    
   1930000   290.73938      112.44934      453.10648      1105.4718      934.05909      8911.6066    
   1930500   289.3651       104.83342      465.87965      1108.077      -1034.5353      8919.0325    
   1931000   309.42087      85.200855      438.24803      1098.0573     -1303.0618      8718.0756    
   1931500   293.08278      118.56395      467.01026      1129.842      -1007.0678      9178.4941    
   1932000   294.56219      107.87889      450.25979      1105.1538      2984.8537      8821.8271    
   1932500   301.85346      100.94763      436.91082      1098.4138      2689.7615      8570.0069    
   1933000   300.11231      85.434009      457.37906      1100.135      -3662.8603      8518.6118    
   1933500   308.91436      104.46717      438.25489      1116.3898      1403.7506      8725.5485    
   1934000   308.81345      96.380491      435.64754      1105.5084     -538.88974      8842.7328    
   1934500   299.72211      90.855988      446.2285       1093.6818      303.34483      8572.9617    
   1935000   300.74916      99.703032      446.70201      1104.9097      975.18917      8760.9787    
   1935500   307.01033      100.7277       435.54695      1106.4065      426.62122      8792.9266    
   1936000   295.43619      97.795282      459.73825      1106.1717     -3374.5918      8838.1925    
   1936500   296.99237      101.54819      452.8177       1105.894      -166.30517      8789.5801    
   1937000   309.60563      109.29586      426.32477      1110.5721      2321.5696      9143.9534    
   1937500   312.11381      117.59001      421.19701      1118.3963     -457.15897      9155.2621    
   1938000   303.4599       93.894382      438.64924      1096.0822      827.89035      8649.7028    
   1938500   303.99425      108.03798      444.76618      1117.3351      962.5185       8974.2664    
   1939000   285.92384      92.674919      479.83483      1103.4831     -477.39837      8572.719     
   1939500   294.6639       102.17326      458.07663      1107.4539      446.00615      8968.4199    
   1940000   305.45227      107.50474      440.72155      1115.4648      3137.9513      9118.6152    
   1940500   293.1962       102.99556      453.96239      1101.4364      134.38345      9036.1636    
   1941000   306.48169      89.070132      432.29775      1090.5181      752.30671      8566.2337    
   1941500   307.05471      99.912237      437.58964      1107.7162     -2040.8162      8965.3932    
   1942000   303.4992       105.83395      435.14491      1104.5904      6.3656038      8784.164     
   1942500   305.48336      96.478923      439.17189      1102.9471      179.75795      8974.2415    
   1943000   296.97564      105.40257      452.94247      1109.8421      480.97803      8867.2689    
   1943500   302.33363      97.398613      434.52784      1093.3735      445.04274      8862.4258    
   1944000   298.46381      93.132017      453.54502      1100.9377     -2212.1752      8832.4686    
   1944500   289.59014      106.17971      465.53527      1109.4968      2854.395       8853.2021    
   1945000   305.52087      101.445        444.38292      1113.1938     -1242.6126      8961.7102    
   1945500   301.65029      103.88512      435.736        1099.7992      2551.5266      8746.984     
   1946000   303.64835      79.006404      447.51234      1090.4073     -1996.3691      8679.3841    
   1946500   297.15308      107.78764      443.01104      1102.6252     -746.31839      8934.6409    
   1947000   306.45757      113.08387      429.5203       1111.7096     -1350.1482      9138.5868    
   1947500   299.58131      107.43926      453.90669      1117.6818      592.56596      8900.7368    
   1948000   305.80988      99.076028      435.70704      1102.6857     -1557.0588      8925.2397    
   1948500   300.32025      110.23806      448.91178      1116.858       467.05381      9143.4625    
   1949000   303.5338       100.55624      436.36139      1100.5934     -98.077656      8971.6188    
   1949500   302.42578      96.948427      444.21777      1102.7844      293.27865      8999.9975    
   1950000   307.37191      102.4166       438.95058      1112.1706     -1734.1458      8873.845     
   1950500   314.27681      114.50002      411.76794      1109.894       3706.2451      9044.2342    
   1951000   291.1039       106.3332       463.33199      1110.2581      1122.958       9003.9567    
   1951500   301.44103      103.87749      445.79338      1109.4603     -4189.2308      8933.654     
   1952000   301.96353      123.48044      437.9268       1122.167       573.85043      9300.0124    
   1952500   306.46887      126.52177      429.24116      1124.8893      1470.586       9367.9268    
   1953000   301.65534      107.34352      438.61429      1106.1452      1989.7219      9073.6184    
   1953500   293.19576      93.610017      455.31719      1093.4048     -1015.5685      8907.2818    
   1954000   298.00271      101.10083      458.4331       1112.9383     -2427.528       8976.6325    
   1954500   301.17119      105.223        440.61443      1105.1258     -269.90207      8942.5759    
   1955000   301.31353      107.14173      440.98747      1107.6819      953.90222      8932.4975    
   1955500   299.1619       97.459574      437.80135      1090.8179     -1962.0267      8768.4687    
   1956000   312.12116      105.24002      427.04248      1111.9054      910.63854      8965.1011    
   1956500   299.99133      110.47066      443.61718      1111.1851      1723.9258      8839.8061    
   1957000   296.915        110.18518      447.31471      1108.8843      5202.4883      8853.4798    
   1957500   295.34543      87.397293      457.21026      1093.0772     -82.519772      8648.7434    
   1958000   299.16552      104.71532      448.67822      1108.9573     -1351.9191      9021.5344    
   1958500   304.41835      102.71834      439.48099      1107.5178      1001.0442      8998.0673    
   1959000   308.81748      108.3575       432.76203      1114.6074     -228.57137      8912.5941    
   1959500   300.217        102.27697      444.98867      1104.782       3217.2471      9074.458     
   1960000   293.05609      113.35602      455.17224      1112.7465     -480.28487      9158.1211    
   1960500   305.99801      98.134723      443.24478      1109.6315     -1948.0617      8919.843     
   1961000   306.36423      89.42171       445.9579       1104.3117     -352.79673      8735.8034    
   1961500   306.3836       92.732235      440.22147      1101.9217     -1616.3668      8730.0269    
   1962000   304.1871       112.86285      428.88613      1106.638       752.94835      8950.6295    
   1962500   302.81316      95.229743      426.52121      1084.0885     -3645.0457      8758.1176    
   1963000   309.87728      108.33827      432.71864      1116.5129     -1243.4727      9249.8298    
   1963500   296.94686      103.34973      453.74688      1108.5402      881.28994      8920.2782    
   1964000   299.81987      106.9065       447.08713      1110.7725     -198.81489      9042.9731    
   1964500   313.98024      102.24599      420.77412      1106.0954      403.78375      8880.8455    
   1965000   296.89655      107.8512       442.5276       1101.7289      440.23521      8951.4207    
   1965500   296.53631      92.792874      447.00714      1090.4812     -1769.9169      8631.4995    
   1966000   300.62004      110.22835      429.45471      1097.9479      1975.5834      8725.5426    
   1966500   294.82417      108.09615      445.0181       1100.6159      1789.8803      8963.4182    
   1967000   301.07444      114.44711      431.70948      1105.2653      1642.1736      8996.0271    
   1967500   295.23883      101.70345      451.24641      1101.2216     -4880.7725      9015.9143    
   1968000   291.27052      114.73903      456.07256      1111.714       606.77942      9010.0048    
   1968500   299.72646      105.77013      444.8002       1107.1758     -460.66705      8786.5163    
   1969000   298.40063      122.25353      447.65143      1124.0483      3213.5719      9189.0524    
   1969500   299.08275      114.80388      448.2971       1118.511      -504.72097      8898.216     
   1970000   307.36263      122.86354      406.74476      1100.3944      454.11387      8961.664     
   1970500   309.71589      110.23874      411.94343      1097.3384     -1784.5187      8872.8735    
   1971000   298.19197      97.757476      447.39877      1098.9121     -238.62831      8867.6572    
   1971500   301.35592      109.23625      436.01217      1104.8798     -2198.5994      8830.0513    
   1972000   295.58417      125.90153      439.88226      1114.6968      5093.2861      9018.6519    
   1972500   290.39419      121.99144      462.31223      1123.5787      2204.9962      9212.8141    
   1973000   309.30576      109.31064      431.65183      1115.3571     -1225.5776      8958.6581    
   1973500   301.10905      89.984757      444.12851      1093.2862     -1063.7238      8679.013     
   1974000   295.61124      112.59678      465.85519      1127.4152     -2574.5482      9137.4599    
   1974500   295.18519      101.43976      453.4398       1103.0516     -1369.6244      8804.0228    
   1975000   303.55656      103.24239      435.62528      1102.5858     -1367.1889      8643.9392    
   1975500   292.6232       115.98479      462.19879      1121.5979      419.87106      9243.636     
   1976000   298.94337      104.72953      440.34991      1100.2306      1853.2593      8894.062     
   1976500   296.10585      103.2267       457.6032       1110.7117     -2493.4895      8953.9613    
   1977000   302.43804      114.86341      429.85939      1106.3637      1849.3808      9243.6393    
   1977500   301.1523       100.96048      438.32669      1098.5404     -1689.5551      8931.639     
   1978000   296.34194      118.01147      445.71716      1114.0488      384.71045      9080.6755    
   1978500   305.62071      100.2016       428.49055      1096.2435     -2176.019       8887.9773    
   1979000   306.92192      92.412584      428.47081      1090.8511      29.834703      8690.8923    
   1979500   301.14911      94.660705      443.16118      1097.0692     -1032.2828      8732.7113    
   1980000   303.99201      93.728467      428.16594      1086.4212      1442.5335      8561.3516    
   1980500   301.13764      99.693304      447.35206      1106.2714     -280.68967      8817.7993    
   1981000   308.74231      89.84926       436.38316      1099.5807      1247.4882      8726.9397    
   1981500   288.46435      102.46838      459.3556       1097.5152     -1573.6749      8575.8376    
   1982000   307.67539      108.40974      431.23631      1111.013       910.7874       8942.277     
   1982500   304.90415      95.503476      431.31521      1093.0393      2015.1579      8654.7722    
   1983000   302.07732      90.581771      444.15093      1095.7038     -3235.383       8589.9285    
   1983500   304.40521      92.956717      448.71759      1106.9684     -3135.1345      8767.558     
   1984000   295.58922      106.82652      444.22532      1099.9742      2412.5357      8771.0688    
   1984500   301.03423      99.853388      434.68081      1093.5682      1960.1619      8646.9592    
   1985000   304.22016      94.848957      440.68779      1100.4872     -710.16507      8814.8922    
   1985500   293.88699      103.35613      455.52924      1104.6466     -561.87494      8960.442     
   1986000   298.88761      109.87254      433.71624      1098.6364      1770.7323      8774.405     
   1986500   294.50456      105.25147      451.60544      1103.765       808.30659      8864.5737    
   1987000   300.63106      98.919003      446.11321      1103.3175     -3354.1257      9008.7291    
   1987500   305.29445      105.3076       443.06753      1115.3206     -1009.165       9054.3416    
   1988000   303.15908      114.96712      433.59769      1111.5448     -1066.4076      9015.071     
   1988500   294.52106      108.24483      445.40944      1100.593       788.74774      8708.6959    
   1989000   299.96987      113.75582      445.31818      1116.1314      1471.1184      9060.2893    
   1989500   297.78088      121.7516       429.14892      1103.8929      2734.7688      8941.5337    
   1990000   297.74051      115.39391      444.36481      1112.6762      3089.5426      8839.2507    
   1990500   303.59392      115.18907      439.90479      1118.8813     -2547.548       9262.2885    
   1991000   294.75824      93.838009      452.38243      1093.5996     -498.94326      8887.9446    
   1991500   305.01403      105.689        446.90137      1119.015      -2451.9856      9017.5667    
   1992000   298.88281      110.61145      435.6524       1101.3026      3269.0734      8648.501     
   1992500   302.50751      104.50748      435.29886      1101.5763      1782.8969      8749.6987    
   1993000   313.32701      96.089341      408.20541      1086.157      -1937.4781      8870.2442    
   1993500   306.2864       97.596458      432.69243      1099.0764      1552.67        9161.187     
   1994000   294.8637       107.92741      443.96852      1099.471      -1750.1111      8897.6161    
   1994500   287.08121      105.46878      463.07949      1101.6709     -417.24326      8830.0697    
   1995000   304.47635      101.30169      443.28942      1110.0173      432.59365      9012.4633    
   1995500   303.48832      94.470003      440.22622      1098.2876      52.072106      8716.6938    
   1996000   303.27342      96.535096      439.87956      1099.6069     -3664.5623      8895.8713    
   1996500   304.74412      102.06468      435.67934      1103.6675     -3595.4833      9082.5537    
   1997000   294.99266      110.55775      447.03828      1105.4106     -1226.9184      9058.7653    
   1997500   301.34603      105.29375      446.98856      1111.8953      2334.0027      8960.41      
   1998000   289.7099       107.37604      462.21519      1107.5954      2504.9751      8934.7139    
   1998500   303.27745      102.12954      442.0005       1107.3298      534.25199      8918.2437    
   1999000   296.41324      114.55906      444.587        1109.5987     -479.84333      9148.1906    
   1999500   288.92359      106.61511      465.49595      1108.6551     -873.9402       9073.2627    
   2000000   300.99047      105.46287      433.55138      1097.967       776.52497      8843.5704    
   2000500   306.05632      105.87746      431.92786      1106.1656      1303.467       8949.3727    
   2001000   303.36544      91.83135       446.29416      1101.4887     -1631.0929      8737.1136    
   2001500   291.86522      104.23328      464.65396      1110.894      -2670.7902      8700.5517    
   2002000   297.75562      110.39325      446.19223      1109.531       774.08344      8830.1459    
Loop time of 727.432 on 64 procs for 2000000 steps with 624 atoms

Performance: 475.096 ns/day, 0.051 hours/ns, 2749.397 timesteps/s, 1.716 Matom-step/s
97.8% CPU use with 64 MPI tasks x 1 OpenMP threads

MPI task timing breakdown:
Section |  min time  |  avg time  |  max time  |%varavg| %total
---------------------------------------------------------------
Pair    | 63.02      | 73.507     | 89.837     |  69.0 | 10.11
Bond    | 6.6603     | 6.9313     | 7.2637     |   4.7 |  0.95
Kspace  | 326.93     | 344.07     | 354.87     |  31.9 | 47.30
Neigh   | 20.262     | 20.474     | 20.607     |   1.9 |  2.81
Comm    | 187.77     | 189.32     | 191.02     |   5.3 | 26.03
Output  | 0.28923    | 0.37981    | 0.50035    |   9.6 |  0.05
Modify  | 72.432     | 73.717     | 74.459     |   4.7 | 10.13
Other   |            | 19.03      |            |       |  2.62

Nlocal:           9.75 ave          15 max           2 min
Histogram: 1 2 2 8 8 5 20 6 6 6
Nghost:        2127.38 ave        2196 max        2069 min
Histogram: 7 5 7 9 5 8 9 8 4 2
Neighs:        3166.12 ave        4911 max         621 min
Histogram: 1 3 3 6 9 7 14 9 7 5

Total # of neighbors = 202632
Ave neighs/atom = 324.73077
Ave special neighs/atom = 6.75
Neighbor list builds = 114341
Dangerous builds = 0
System init for write_data ...
PPPM initialization ...
  using 12-bit tables for long-range coulomb (../kspace.cpp:342)
  G vector (1/distance) = 0.20024252
  grid = 6 6 6
  stencil order = 5
  estimated absolute RMS force accuracy = 0.015629438
  estimated relative force accuracy = 4.7067587e-05
  using single precision MKL FFT
  3d grid and FFT values/proc = 343 8
Generated 153 of 153 mixed pair_coeff terms from geometric mixing rule
Total wall time: 0:12:08
