LAMMPS (22 Jul 2025 - Update 1)
  using 1 OpenMP thread(s) per MPI task
Reading data file ...
  orthogonal box = (4.3298347 4.3769891 4.4472704) to (24.473 25.175129 25.524604)
  4 by 4 by 4 MPI processor grid
  reading atoms ...
  624 atoms
  reading velocities ...
  624 velocities
  scanning bonds ...
  3 = max bonds/atom
  scanning angles ...
  3 = max angles/atom
  scanning dihedrals ...
  6 = max dihedrals/atom
  scanning impropers ...
  3 = max impropers/atom
  orthogonal box = (4.3298347 4.3769891 4.4472704) to (24.473 25.175129 25.524604)
  4 by 4 by 4 MPI processor grid
  reading bonds ...
  572 bonds
  reading angles ...
  780 angles
  reading dihedrals ...
  832 dihedrals
  reading impropers ...
  260 impropers
Finding 1-2 1-3 1-4 neighbors ...
  special bond factors lj:    0        0        0.5     
  special bond factors coul:  0        0        0.5     
     3 = max # of 1-2 neighbors
     4 = max # of 1-3 neighbors
     8 = max # of 1-4 neighbors
    10 = max # of special neighbors
  special bonds CPU = 0.005 seconds
  read_data CPU = 0.029 seconds
PPPM initialization ...
  using 12-bit tables for long-range coulomb
  G vector (1/distance) = 0.20024252
  grid = 6 6 6
  stencil order = 5
  estimated absolute RMS force accuracy = 0.015629438
  estimated relative force accuracy = 4.7067587e-05
  using double precision KISS FFT
  3d grid and FFT values/proc = 343 8
Generated 153 of 153 mixed pair_coeff terms from geometric mixing rule
Neighbor list info ...
  update: every = 1 steps, delay = 0 steps, check = yes
  max neighbors/atom: 2000, page size: 100000
  master list distance cutoff = 13
  ghost atom cutoff = 13
  binsize = 6.5, bins = 4 4 4
  1 neighbor lists, perpetual/occasional/extra = 1 0 0
  (1) pair lj/cut/coul/long, perpetual
      attributes: half, newton on
      pair build: half/bin/newton
      stencil: half/bin/3d
      bin: standard
Setting up Verlet run ...
  Unit style    : real
  Current step  : 0
  Time step     : 2
Per MPI rank memory allocation (min/avg/max) = 10.88 | 10.99 | 11.54 Mbytes
   Step          Temp          E_pair         E_mol          TotEng         Press     
         0   300            109.96464      446.19223      1113.2703      793.94658    
       500   310.16337      111.79531      481.89774      1169.6803      233.56995    
      1000   303.48604      109.66165      493.23028      1166.4791     -1353.2632    
      1500   282.71191      105.53988      499.02813      1129.5767     -3603.4064    
      2000   304.38905      104.71668      499.39791      1169.3786     -6270.054     
      2500   294.88763      118.80451      494.3378       1160.7618     -812.71813    
      3000   296.36402      118.77584      462.41158      1131.5486      1592.6513    
      3500   303.3908       114.9949       483.18607      1161.5912      5101.9061    
      4000   305.2319       116.21455      470.98166      1154.0255      1687.6754    
      4500   296.55301      103.63472      476.20577      1130.5527     -2785.7357    
      5000   303.1923       106.1249       477.644        1146.8105     -166.87316    
      5500   307.51215      109.02112      476.19476      1156.2797      35.110411    
      6000   294.03371      115.4852       476.06253      1137.5815      970.4247     
      6500   294.14         116.64154      478.26297      1141.1356      2607.4956    
      7000   305.76674      103.74616      497.21827      1168.7869      1775.0501    
      7500   301.62626      111.33676      471.21025      1142.6804     -861.35042    
      8000   298.59403      99.616945      476.36607      1130.4855     -1599.4327    
      8500   302.78106      106.23402      490.85767      1159.3696      1554.217     
      9000   306.54586      109.4739       487.01842      1165.7617      193.42202    
      9500   289.86208      111.62269      468.27065      1118.1802      1245.2762    
     10000   315.5353       102.6166       471.10817      1159.6879     -3023.9809    
     10500   308.12008      117.61307      453.48225      1143.2881      1548.3602    
     11000   288.45057      105.81661      472.64778      1114.13        636.13222    
     11500   300.61593      121.72675      480.0518       1160.0358      2721.7828    
     12000   311.71556      114.23548      469.74939      1162.8546      863.34985    
     12500   281.06177      116.29845      487.43196      1125.6747     -1719.3423    
     13000   287.25494      117.80766      503.5315       1154.7844      1504.2491    
     13500   296.97226      121.13958      477.33525      1149.9656      2440.3868    
     14000   294.4539       111.63495      488.88851      1147.3375      862.89139    
     14500   303.9192       99.418682      477.76746      1141.5777      148.89896    
     15000   301.66301      102.09806      462.69107      1124.9908     -844.10852    
     15500   304.47951      102.61143      481.62613      1149.6696     -2487.1698    
     16000   298.37092      118.50042      468.91395      1141.5025     -522.5268     
     16500   302.38585      105.29182      462.591        1129.4268     -356.8481     
     17000   309.57307      110.05811      455.10968      1140.0588     -835.3815     
     17500   291.34714      113.24684      476.29122      1130.5827      118.53387    
     18000   296.86777      121.85585      465.76873      1138.9213      1308.1593    
     18500   302.652        113.46984      472.78361      1148.2917     -827.77148    
     19000   297.77654      119.44768      458.40708      1130.8391      2245.1862    
     19500   298.44083      112.39036      472.22285      1138.8312      1023.7163    
     20000   303.01939      112.05047      481.00529      1155.7763      1613.9328    
     20500   277.48479      117.97915      496.06586      1129.3466     -254.10576    
     21000   294.15153      111.8958       490.20555      1148.3539     -786.61939    
     21500   306.62546      110.19143      483.33017      1162.9388     -4034.8972    
     22000   297.79989      109.0979       472.39515      1134.5207     -2781.3049    
     22500   283.02046      119.89857      503.42233      1148.9025     -952.36346    
     23000   302.58026      109.85743      486.64624      1158.4087     -27.368347    
     23500   301.88097      113.8872       469.64367      1144.1373      1562.4423    
     24000   293.5026       125.32063      478.52776      1148.8958      133.17583    
     24500   295.31059      115.33883      481.98409      1145.7279      928.97709    
     25000   296.82066      115.65878      483.71279      1150.5808      287.24846    
     25500   290.23604      107.62115      501.58788      1148.1903     -1463.0445    
     26000   296.88259      111.00073      483.64596      1145.9709     -850.6017     
     26500   299.53036      122.02156      467.88232      1146.1451      440.37795    
     27000   305.64301      113.94489      473.9317       1155.4693      2818.1088    
     27500   294.44809      117.14923      490.16995      1154.1224      434.84223    
     28000   301.95511      113.10507      472.51281      1146.362      -118.73073    
     28500   297.0215       115.75596      475.97748      1143.3156      644.36506    
     29000   298.78797      111.45629      481.55242      1147.8713      1632.3815    
     29500   300.44668      117.22905      477.48341      1152.6554      693.89099    
     30000   296.37573      112.30187      464.90349      1127.5883      606.92539    
     30500   296.27046      114.60528      474.62927      1139.422       893.76059    
     31000   297.50922      121.10509      488.97682      1162.5698     -756.12891    
     31500   308.63427      103.85705      461.68711      1138.6918     -1079.4186    
     32000   302.35177      109.87102      476.65373      1148.0055     -2169.1558    
     32500   292.16093      115.44004      488.648        1146.6439      29.461239    
     33000   304.14623      108.35149      466.84907      1140.0137     -721.53957    
     33500   301.68545      116.6665       494.29314      1171.203      -1724.7006    
     34000   294.89161      106.70813      491.24505      1145.5801     -435.77275    
     34500   305.69984      102.44872      451.87763      1122.0246     -346.42002    
     35000   305.60319      100.86084      483.08198      1151.4616     -1369.4319    
     35500   293.585        113.83045      480.21065      1139.2416     -2433.2556    
     36000   306.57909      109.56217      460.92472      1139.818      -2805.7986    
     36500   302.75685      119.22311      473.78471      1155.2408     -1926.5924    
     37000   301.64651      106.21968      462.21275      1128.6035     -1844.5347    
     37500   304.13288      113.37902      465.47315      1143.6405     -7.6598197    
     38000   301.35092      116.58689      466.66526      1142.8743     -499.33968    
     38500   302.0501       103.52407      469.79628      1134.2409      422.06806    
     39000   287.19087      110.48104      509.72104      1153.5284     -77.872274    
     39500   305.22104      119.48981      484.84882      1171.1477     -670.12596    
     40000   290.15082      111.80622      492.88493      1143.5142     -2856.7259    
     40500   298.65944      116.47507      460.06886      1131.1678      66.761064    
     41000   310.11888      119.78224      490.21402      1185.9009      2442.726     
     41500   288.45272      118.12404      475.16545      1128.9591     -1292.5981    
     42000   299.15433      99.172839      468.78641      1123.5022      2412.4865    
     42500   312.95263      112.63386      481.84077      1175.6416      885.36188    
     43000   288.19473      105.17168      491.47735      1131.8395      570.13242    
     43500   287.37617      109.71381      475.27934      1118.6635     -2871.8915    
     44000   318.32776      109.28175      494.457        1194.8876     -2907.7904    
     44500   276.1294       111.70539      501.37231      1125.8623     -1637.6161    
     45000   293.8982       114.26173      455.90555      1115.9494     -428.17352    
     45500   312.97347      119.43239      487.73069      1188.3688      2324.8281    
     46000   299.34599      106.59523      461.53629      1124.0304      2156.7031    
     46500   293.11813      105.36295      463.08113      1112.7775      561.42165    
     47000   324.28979      111.30831      484.51732      1198.0462      141.62152    
     47500   288.93199      107.79573      481.69337      1126.0487     -282.72477    
     48000   291.48235      106.48011      447.42407      1095.1999      1195.6613    
     48500   303.1697       121.96157      522.74787      1207.7091     -1610.8958    
     49000   304.59949      112.67847      452.10267      1130.436       1326.6249    
     49500   277.32441      115.60123      468.29195      1098.897       1693.9346    
     50000   316.29164      117.66233      498.35784      1203.3879      3633.0805    
     50500   294.60142      113.01013      472.3951       1132.4932      1849.5047    
     51000   282.1625       115.37313      454.9149       1094.2764      2034.4025    
     51500   317.24613      121.13355      504.36074      1214.6345     -1785.5277    
     52000   295.09156      109.17231      468.87346      1126.044       383.97304    
     52500   281.87341      105.91696      460.2853       1089.6538     -179.05234    
     53000   309.42965      117.05236      514.15568      1205.8327     -220.01363    
     53500   306.54865      106.02839      443.82525      1119.1282     -1385.0494    
     54000   281.364        103.81567      459.2545       1085.5757     -1872.2662    
     54500   322.08671      110.80495      513.53165      1222.466      -2180.2336    
     55000   286.4219       117.35618      475.6237       1124.8781      275.2625     
     55500   286.9573       109.38118      453.15677      1095.4305      1588.0112    
     56000   328.6111       103.06665      499.06478      1212.3769     -2760.0789    
     56500   277.09724      125.04542      459.89115      1099.5185      12.049131    
     57000   297.94865      112.35972      467.64874      1133.3124     -1209.5888    
     57500   316.78705      123.86143      502.30649      1214.4556     -739.11514    
     58000   286.56796      109.67516      446.32832      1088.173       1604.2676    
     58500   301.41394      106.16353      452.46788      1118.3706      1043.2333    
     59000   306.17949      128.53328      524.19256      1221.3148      1591.698     
     59500   284.09427      98.493883      476.1009       1102.1705      1277.5322    
     60000   295.97588      99.301151      457.38633      1106.3279     -3161.714     
     60500   323.51773      121.5995       475.27241      1197.6588     -661.91352    
     61000   284.02682      118.35568      463.28486      1109.091       742.48338    
     61500   298.106        107.21655      462.86217      1123.6749      1554.804     
     62000   313.98931      110.61705      488.52152      1182.2307     -231.95753    
     62500   278.97023      108.87136      498.27767      1125.2092     -579.96792    
     63000   300.84756      102.81581      469.15644      1130.6596     -83.480347    
     63500   297.15533      107.43885      521.81653      1181.0861     -404.7587     
     64000   291.9724       113.76651      466.63572      1122.608      -698.92767    
     64500   306.41953      107.78058      456.89362      1133.7089     -812.9859     
     65000   317.12943      105.30595      485.48538      1179.7148     -2139.8553    
     65500   285.49137      117.35217      469.17956      1116.702       1312.2066    
     66000   301.14168      114.72323      463.04899      1137.0058     -321.37377    
     66500   304.77841      118.78182      503.62627      1188.3952     -1876.5961    
     67000   296.24438      107.64024      452.59185      1110.3711      4472.4958    
     67500   301.556        101.8965       480.34186      1142.2413     -520.01945    
     68000   308.84649      114.38881      504.75048      1192.681       421.74949    
     68500   286.45308      104.93012      472.85095      1109.7372      308.05288    
     69000   298.22413      111.85546      463.21225      1128.8832     -1932.5522    
     69500   319.57556      112.13936      495.69552      1201.301      -514.76529    
     70000   277.06491      113.03232      481.80968      1109.3639     -642.38282    
     70500   305.15565      110.34029      461.47876      1138.5067     -111.14975    
     71000   307.69613      116.25219      509.28348      1196.9411     -532.04528    
     71500   294.86212      109.07355      434.32689      1090.9726     -727.74817    
     72000   302.55166      120.15881      470.21829      1152.229       256.1102     
     72500   319.19213      116.91278      480.44599      1190.1128      2007.0422    
     73000   276.43257      112.45153      456.31455      1082.1137     -2405.1392    
     73500   307.86703      120.17665      472.88072      1164.7802      2190.8048    
     74000   316.03662      116.11737      474.54028      1177.5518      3222.2299    
     74500   276.62504      109.6632       456.24167      1079.6099      767.09638    
     75000   308.25704      116.22772      488.33247      1177.0073      1064.8148    
     75500   303.78169      116.25428      491.97036      1172.3608      351.83152    
     76000   290.23612      105.83378      420.53786      1065.3531     -15.820354    
     76500   314.39986      123.06073      493.96009      1200.8754      542.26975    
     77000   300.73887      115.42752      497.87889      1171.7919     -819.73326    
     77500   272.60821      107.56753      465.47176      1079.2849     -2287.9228    
     78000   309.23642      130.27136      508.50163      1213.0388      419.54295    
     78500   304.02988      113.48125      483.12051      1161.1988      177.01235    
     79000   282.92223      113.55361      441.87386      1080.8267     -144.69677    
     79500   319.99111      114.58098      508.30324      1217.122      -394.76238    
     80000   298.9913       121.14188      460.11376      1136.4958     -2205.9016    
     80500   282.50894      118.88812      435.43828      1078.9581      1245.8399    
     81000   309.83234      120.45833      515.87027      1211.7011      33.78987     
     81500   299.09973      104.88057      486.78851      1147.1106     -1879.7516    
     82000   279.73273      110.82063      459.56485      1089.8616      2087.1463    
     82500   322.90155      118.03387      491.59019      1209.2666      3635.64      
     83000   293.71068      112.50527      483.32497      1141.2641      3926.9063    
     83500   287.94105      103.73217      451.98245      1090.434      -2653.8785    
     84000   313.75469      107.70949      518.96028      1209.3262      1174.3967    
     84500   290.19035      121.50253      464.54649      1124.9455      1484.5861    
     85000   284.29423      104.71035      471.08259      1103.74       -1619.7571    
     85500   316.90999      115.93216      506.16159      1210.6098      537.63602    
     86000   288.93297      110.94831      479.99634      1127.5061      170.64964    
     86500   291.54233      116.40816      463.31006      1121.1253     -941.06417    
     87000   322.54404      108.25382      504.64597      1211.8785     -2107.3753    
     87500   293.31723      105.46631      457.00194      1107.1714     -61.707183    
     88000   296.23836      113.74321      439.68325      1103.5543      1269.6765    
     88500   324.10136      119.08333      490.43127      1211.3853      2092.0251    
     89000   291.54768      113.62076      452.4857       1107.5235      1647.1802    
     89500   289.91017      108.32196      461.8098       1108.5079     -237.72751    
     90000   321.39346      116.05339      493.79817      1206.6936      965.15922    
     90500   294.50849      113.20898      463.71744      1123.8418      790.10017    
     91000   285.62787      117.51133      468.73285      1116.6679      814.04443    
     91500   308.4679       117.23704      511.67369      1201.7494     -3461.9303    
     92000   293.79493      113.26242      456.79749      1115.6502      2265.3269    
     92500   304.67366      99.794908      453.0903       1118.6778     -2290.6154    
     93000   307.03998      119.25454      485.70714      1175.1486      314.83461    
     93500   292.89229      110.10681      457.85478      1111.8757     -2502.2345    
     94000   294.0812       111.62453      486.74659      1144.493       111.2654     
     94500   311.04277      113.52455      478.16143      1169.3063      305.59863    
     95000   283.81649      114.66067      447.43525      1089.1558      105.7564     
     95500   305.13298      112.35172      475.93549      1154.9328     -252.35228    
     96000   308.33212      113.67263      485.54054      1171.7997     -1650.8071    
     96500   292.81072      113.9415       440.46849      1098.1726     -2055.057     
     97000   317.45069      115.09699      450.20295      1154.82       -1398.4371    
     97500   310.02601      106.74874      466.43317      1148.914      -1014.1279    
     98000   284.95462      113.06057      435.54498      1077.779      -1177.9399    
     98500   303.64572      117.88678      487.15333      1168.9238      3127.1964    
     99000   296.10505      110.18935      498.58782      1158.6575     -1467.8145    
     99500   292.17021      103.71212      437.09922      1083.3845     -537.80695    
    100000   320.32598      115.28799      462.31674      1172.4644      1377.801     
    100500   312.65212      120.49198      457.7995       1158.9004     -151.25407    
    101000   294.74197      103.02154      433.61532      1083.9858     -859.20577    
    101500   314.87054      110.47665      475.18024      1170.3856      306.8034     
    102000   299.49015      115.36884      488.25465      1159.7901      3381.8442    
    102500   281.71434      106.46142      467.52586      1097.1434     -2361.3243    
    103000   317.69879      112.85662      494.83673      1197.6742     -1724.0475    
    103500   301.39444      112.71952      490.58791      1163.0104      3059.4806    
    104000   286.61659      114.69331      451.36335      1098.3165      2373.6019    
    104500   296.83324      108.58139      527.21514      1187.0291      2801.6433    
    105000   301.57747      100.96747      476.87469      1137.885      -1256.9764    
    105500   287.25637      105.08051      476.67338      1115.2018     -2745.2939    
    106000   308.63169      109.76041      508.58081      1191.4841     -19.485911    
    106500   294.68659      101.24118      484.09101      1132.5783     -1451.7724    
    107000   295.39917      123.07834      445.51884      1117.1666      1915.4214    
    107500   316.43783      120.75456      482.39456      1190.7883      552.14198    
    108000   301.32181      120.94909      442.75812      1123.2753      2755.9111    
    108500   299.1814       111.27199      465.65026      1132.5155      462.01451    
    109000   309.16064      122.7881       470.10034      1167.0136      2040.135     
    109500   309.46323      112.9319       432.70056      1120.3195     -157.86724    
    110000   306.65446      98.644971      471.72848      1139.8445     -3949.0118    
    110500   296.91811      114.88715      491.93454      1158.2119     -755.90756    
    111000   295.38995      124.22672      442.44735      1115.2264      759.87287    
    111500   297.33722      109.28188      481.94728      1143.3977      3652.2508    
    112000   298.18323      112.32554      477.84258      1143.9077      148.48404    
    112500   283.82507      119.06145      463.58111      1109.7184     -2224.8322    
    113000   309.64207      108.94057      476.33591      1160.2956     -998.15291    
    113500   296.06457      116.82766      490.0382       1156.671       3706.5315    
    114000   293.65305      120.9626       442.91448      1109.2039      2488.8175    
    114500   317.30419      118.33423      459.36916      1166.9514      1760.5369    
    115000   297.87799      108.49264      484.27145      1145.9368     -245.46276    
    115500   301.01607      111.74028      453.02005      1123.7606     -686.54091    
    116000   311.78705      112.91139      474.20308      1166.1169     -1452.0699    
    116500   292.73114      128.5637       458.89596      1131.0745      2513.0853    
    117000   297.83156      119.00084      469.97061      1142.058       2503.9461    
    117500   307.39993      120.2404       493.87639      1184.9722      3643.6422    
    118000   291.58951      103.97201      464.54007      1110.0068      1517.9861    
    118500   303.78506      107.30833      454.39268      1125.8434     -1615.6042    
    119000   310.43485      111.63051      516.4628       1204.5847      294.71451    
    119500   280.08167      110.23714      482.40357      1112.7649     -2864.9194    
    120000   291.42298      113.63704      488.5075       1143.33        657.18514    
    120500   306.06035      120.24265      515.7901       1204.4005      1025.0271    
    121000   282.31942      105.35318      477.14713      1106.7801     -716.52556    
    121500   284.80526      118.28124      494.39625      1141.5736      579.07131    
    122000   305.82648      112.83528      515.52908      1196.2978      1119.3637    
    122500   283.06698      102.15022      460.65944      1088.4777      578.51508    
    123000   309.38133      118.0745       461.06544      1153.6749      402.42503    
    123500   314.87096      98.446246      512.02465      1195.2003     -1260.7486    
    124000   287.06097      94.813943      447.64319      1075.5422     -1133.2737    
    124500   308.05754      98.423482      511.72483      1182.2249     -1827.5024    
    125000   292.0585       107.63006      526.67151      1176.6672     -1299.9174    
    125500   283.56535      108.00774      457.37256      1091.9738     -2000.6027    
    126000   307.14482      118.20861      499.09598      1187.6862     -283.38878    
    126500   309.41345      104.59164      474.28551      1153.4718      1271.9593    
    127000   289.82773      103.67538      450.21403      1092.1125      2760.3107    
    127500   331.0748       109.97865      483.78562      1208.585      -452.23373    
    128000   301.97157      109.79645      475.66692      1146.2381      2291.8732    
    128500   277.14669      112.43537      471.07648      1098.1856      2813.7891    
    129000   311.6802       118.46018      517.12313      1214.3874     -8.4364777    
    129500   294.52859      98.447837      491.27467      1136.6752     -964.81259    
    130000   289.17654      100.47958      463.55661      1101.0499     -3305.1775    
    130500   312.49078      117.98499      516.03478      1214.3291     -24.640676    
    131000   310.68574      103.01436      465.66123      1145.6329      1690.6195    
    131500   274.49833      99.872609      481.28577      1090.914       717.63346    
    132000   321.2294       107.59599      504.35117      1208.4845      1730.145     
    132500   301.52958      109.80362      476.92575      1146.6833      993.45081    
    133000   294.4554       101.83773      440.97527      1089.6298     -1535.1333    
    133500   323.14839      114.0103       489.46499      1203.5763      2930.7527    
    134000   300.29657      113.49002      464.10635      1135.2605      2767.9569    
    134500   287.04453      107.3947       468.33926      1108.7885      2347.7074    
    135000   324.13605      106.5397       497.53438      1206.0092      536.57694    
    135500   296.2401       109.58165      458.02218      1117.7349     -7.8863072    
    136000   290.11982      98.853625      475.45111      1113.0702     -222.96405    
    136500   316.7955       109.96178      489.74285      1188.008       405.1776     
    137000   301.5912       119.12328      446.24426      1125.4359      690.23361    
    137500   293.01459      107.62958      476.06808      1127.8389      2306.2781    
    138000   310.24248      118.87485      482.32605      1177.335       2573.9378    
    138500   298.32178      111.96564      455.64426      1121.6068      1994.387     
    139000   302.4432       104.94354      466.71694      1133.311      -160.66007    
    139500   313.5282       104.84975      490.89813      1177.9837     -566.34761    
    140000   286.86658      105.87969      479.95844      1118.5622     -397.08012    
    140500   285.16747      118.61486      496.82377      1145.0074      1375.3151    
    141000   312.4716       106.18979      494.83964      1181.3031      1668.1529    
    141500   289.45529      97.687534      462.72207      1097.941       1383.1583    
    142000   289.2267       103.50777      500.94398      1141.5586      1036.5811    
    142500   315.3974       112.89117      490.00198      1188.6002      1581.7973    
    143000   285.432        103.04041      466.04005      1099.1404      417.63688    
    143500   293.59619      106.60773      497.23652      1149.0655     -2172.5798    
    144000   312.73341      108.42415      506.79945      1195.9835     -2059.0395    
    144500   290.47319      106.74019      451.21256      1097.3744      231.59587    
    145000   307.18923      111.85709      457.01206      1139.3333      2669.7751    
    145500   308.86235      116.48191      505.21698      1195.2701      1539.6648    
    146000   290.44729      101.31447      456.9265       1097.6146     -3189.1563    
    146500   314.24219      108.96249      453.68501      1146.2093     -1152.3469    
    147000   312.47015      108.35581      494.66217      1183.289      -2813.5343    
    147500   282.85253      102.84938      460.64528      1088.7644     -3718.912     
    148000   302.39393      105.27178      480.85915      1147.69       -1925.3963    
    148500   312.49609      113.14183      500.53338      1193.9944     -180.29524    
    149000   284.45381      112.71783      458.53305      1099.4943      820.30239    
    149500   302.21457      108.78239      479.38358      1149.3919      896.26379    
    150000   320.44399      110.68301      461.96729      1167.7291     -138.27621    
    150500   293.06432      108.51922      440.87541      1093.6282      558.5193     
    151000   299.75827      114.66472      485.3482       1156.6774      1262.8483    
    151500   312.14898      113.99537      486.40732      1180.0773      1127.8578    
    152000   281.55524      101.49322      469.28216      1093.636      -2544.0015    
    152500   292.41377      114.19512      493.78567      1151.0062     -636.11098    
    153000   309.28419      125.28514      482.19832      1181.838      -145.23229    
    153500   281.59149      110.31641      456.0238       1089.2682      3247.4727    
    154000   303.56483      111.75813      475.73914      1151.2307      3723.7881    
    154500   327.56267      110.68514      464.29271      1183.2763     -1331.7562    
    155000   280.99436      112.59404      452.83566      1087.2488      2890.5551    
    155500   306.92454      115.1635       477.53232      1162.6684     -212.55816    
    156000   308.21926      109.26267      486.81235      1168.452       2235.5499    
    156500   286.48428      110.86152      443.62571      1086.5013      461.80292    
    157000   310.70311      105.72329      472.23362      1154.9465      1490.069     
    157500   305.33954      111.43485      493.83379      1172.2978      738.34047    
    158000   284.07498      103.60771      472.48437      1103.632      -140.79255    
    158500   311.27516      110.05107      473.5771       1161.6801     -539.41058    
    159000   301.91906      121.65901      482.64513      1164.9813      1806.2236    
    159500   278.69898      108.8668       479.98088      1106.4041     -1798.1744    
    160000   313.78412      110.27695      484.83924      1177.8273      728.55082    
    160500   306.08341      100.38162      480.899        1149.6912     -3800.4947    
    161000   285.36432      101.54661      456.21135      1087.6922      2825.0658    
    161500   312.67397      109.88903      485.08987      1175.6284     -2691.6566    
    162000   310.89551      105.3119       487.65099      1170.3098     -2366.5084    
    162500   280.77299      110.71995      468.36277      1100.4907     -1144.4754    
    163000   318.88632      119.56193      465.91196      1177.66        2297.1444    
    163500   301.9381       124.172        492.15369      1177.0382      614.69768    
    164000   287.94562      114.06728      435.45198      1084.2471      1381.4892    
    164500   307.70332      112.82516      475.41309      1159.6571     -2647.6841    
    165000   312.90441      113.73479      474.71211      1169.5244      2751.8435    
    165500   282.32505      111.16004      459.68125      1095.1315      2749.7414    
    166000   311.15443      118.64016      459.72246      1156.1903      339.10309    
    166500   314.0621       108.32551      460.76149      1152.3143      1037.9487    
    167000   287.39944      114.84786      458.30586      1106.8673      172.13495    
    167500   310.83281      122.70378      466.49367      1166.4279      1647.9       
    168000   296.29855      120.34909      475.96251      1146.5512     -964.4686     
    168500   282.92108      115.4177       456.98859      1097.8034      2309.2689    
    169000   298.24219      119.71487      501.984        1175.5479      398.01074    
    169500   304.44177      112.53716      481.95269      1159.8518     -1674.8944    
    170000   296.83699      100.82369      434.7567       1086.8199     -3346.1089    
    170500   304.27595      117.67341      491.37134      1174.0988     -4359.9664    
    171000   296.80266      110.53736      488.72729      1150.4405     -364.43933    
    171500   288.44903      116.1683       431.38749      1083.2185     -2597.5258    
    172000   309.36685      114.41427      488.82946      1177.7518     -822.13339    
    172500   295.2154       118.83162      456.29911      1123.3589      629.25805    
    173000   282.85971      112.27162      447.09694      1084.6517      1518.0375    
    173500   318.21318      111.98338      505.6215       1208.541      -2882.0624    
    174000   296.41155      103.67266      475.58994      1129.7121      1056.2412    
    174500   285.25674      115.7532       439.66204      1085.1497     -130.11937    
    175000   322.78114      129.6165       499.30597      1228.3415      1922.6747    
    175500   293.34121      111.24607      458.25062      1114.2444      79.992339    
    176000   288.83191      106.96346      446.46931      1089.8065     -461.18697    
    176500   315.54149      119.52939      518.39976      1223.9038      158.55005    
    177000   298.75271      107.45425      445.80512      1108.0565     -426.02724    
    177500   286.4987       107.94265      461.64075      1101.6243      4729.8744    
    178000   320.52437      120.97592      499.40377      1215.6078      2044.7085    
    178500   295.15887      114.5853       445.24861      1107.9571     -511.45417    
    179000   293.40987      114.88828      454.47365      1114.2372      3377.5528    
    179500   325.08882      112.14739      466.3404       1182.1922      383.71638    
    180000   288.34219      109.70599      458.57852      1103.7488     -815.19159    
    180500   303.40356      114.03005      444.49683      1121.9608      3868.9811    
    181000   312.76551      136.41132      483.89205      1201.1229      5129.4118    
    181500   296.99907      116.54505      427.53698      1095.6226      825.29248    
    182000   296.07776      102.83299      452.16603      1104.8286     -937.5618     
    182500   321.22859      114.67621      500.02076      1211.2328     -1626.7261    
    183000   283.1979       106.98719      478.09453      1110.9929     -787.73434    
    183500   295.38518      102.78124      454.89492      1106.2196      290.75304    
    184000   317.58367      115.09923      502.46265      1207.3289     -1596.6959    
    184500   288.39515      112.00272      451.1951       1098.7605      737.44404    
    185000   283.26336      119.55645      476.49041      1122.0796      703.72156    
    185500   315.5635       116.75112      484.30217      1187.0688     -739.86895    
    186000   285.93201      117.10275      430.34532      1078.4366      1920.0689    
    186500   299.21631      105.02679      471.7899       1132.4747     -76.812692    
    187000   316.28568      108.01241      496.90626      1192.2753      661.09324    
    187500   281.96934      106.18306      463.8377       1093.6504      1462.8937    
    188000   304.20346      108.28194      447.79696      1120.9983     -160.35301    
    188500   324.0944       119.58612      460.8804       1182.3243      928.45045    
    189000   283.95476      111.00449      455.05604      1093.3772      322.30686    
    189500   292.72518      104.45384      480.33219      1128.3898     -4242.5572    
    190000   321.71146      113.40864      482.22656      1193.0677     -142.28565    
    190500   289.33991      112.97056      439.00293      1089.2906      1744.8243    
    191000   296.82748      114.65666      469.37892      1135.2575      1631.2001    
    191500   305.83266      127.35214      505.29144      1200.5885      966.61474    
    192000   298.20323      112.30266      415.67227      1081.7516      1919.178     
    192500   303.99465      105.55193      461.1343       1131.2179     -1742.2175    
    193000   304.27824      109.03242      500.6323       1174.723      -3269.4678    
    193500   288.57678      95.93044       453.06367      1084.8941     -3569.4849    
    194000   293.9315       116.40267      492.59541      1154.842      -2505.936     
    194500   311.04168      124.29605      472.70156      1174.6159      116.70798    
    195000   280.16578      117.75649      446.86266      1084.8995     -1143.0327    
    195500   298.09025      118.78602      473.59044      1145.9434      3291.263     
    196000   315.08043      120.06528      466.7783       1171.962       130.72091    
    196500   292.11993      121.78154      433.33975      1097.601      -296.92386    
    197000   297.94203      112.16188      503.17247      1168.626      -373.50744    
    197500   310.0575       114.09018      471.26005      1161.1409     -1146.5279    
    198000   287.98861      113.13629      446.11538      1094.0594     -588.11953    
    198500   291.90272      116.81341      502.18176      1161.0716      127.16881    
    199000   302.28098      117.74159      488.09162      1167.1825      991.81477    
    199500   297.09806      118.03172      433.22203      1102.9781      1137.3371    
    200000   307.96905      108.27095      487.51623      1167.6995     -764.24398    
    200500   291.39623      115.09007      490.31637      1146.5422     -178.62129    
    201000   289.04227      114.77         462.35699      1113.8914     -685.67794    
    201500   309.25444      115.11744      484.8537       1174.2704      724.53173    
    202000   299.27768      100.75313      469.36462      1125.8898      1176.5216    
    202500   293.40654      101.08467      467.12696      1113.0807     -2256.352     
    203000   323.60516      102.41058      489.02193      1192.3818     -631.79945    
    203500   286.21007      104.44167      486.68268      1122.6292     -1327.8744    
    204000   296.67254      113.23396      448.47907      1112.6472     -363.16599    
    204500   306.03106      111.87972      514.71665      1194.9097     -505.33761    
    205000   288.54455      111.34038      465.88198      1113.0625     -2301.0007    
    205500   284.87283      105.56127      488.68166      1123.2645     -1692.3358    
    206000   322.08131      106.39548      485.01545      1189.5303     -2352.4854    
    206500   287.93633      119.95139      457.97013      1112.6321     -1467.9846    
    207000   291.88004      111.51158      480.14033      1133.6862      1185.13      
    207500   324.62472      108.48024      493.75354      1205.0764      199.76832    
    208000   290.23414      109.1084       472.59843      1120.6846     -1374.1305    
    208500   292.68434      107.53789      492.1429       1143.2087     -1723.629     
    209000   313.27296      104.80321      523.48034      1210.0454     -1400.4367    
    209500   296.82576      104.02877      440.56769      1095.8151      1846.7276    
    210000   288.33722      100.60562      478.27851      1114.3392     -1515.2805    
    210500   321.48414      104.39396      495.86166      1197.266      -2399.1183    
    211000   278.49532      105.62698      501.76034      1124.5656     -3551.7272    
    211500   295.23197      105.14315      457.10207      1110.5042     -1377.855     
    212000   309.79701      108.25324      508.87291      1192.433       412.54577    
    212500   303.20004      106.60751      471.89642      1141.5599     -1608.6914    
    213000   291.6987       105.06074      479.53535      1126.2936     -1964.7598    
    213500   306.29122      114.35621      488.93407      1172.0868      4863.8214    
    214000   302.48431      108.65457      484.29086      1154.6723      2502.1629    
    214500   298.15836      115.72624      454.62554      1124.0452      331.14847    
    215000   298.13934      116.57469      508.44856      1178.6813     -1304.6223    
    215500   298.15215      104.86161      493.18736      1151.7308      949.16114    
    216000   289.76051      107.6399       475.42022      1121.1583     -309.23926    
    216500   298.00663      112.38693      515.47156      1181.2701     -968.14706    
    217000   297.2661       106.63287      493.18889      1151.8582     -1892.0561    
    217500   286.73474      95.736875      484.2815       1112.4976     -4373.4938    
    218000   295.25135      107.60316      517.42645      1173.3246     -4417.734     
    218500   296.02763      109.80824      508.97676      1168.5215     -143.59663    
    219000   300.76627      110.38725      437.92532      1106.849      -2225.1126    
    219500   305.08237      117.78518      493.87143      1178.2082     -551.11347    
    220000   295.31303      112.10605      512.3666       1172.8821      72.622012    
    220500   288.67853      106.77128      453.50694      1096.3671     -463.61373    
    221000   304.171        115.68776      490.15771      1170.7046     -1716.9464    
    221500   310.16361      121.66505      480.77736      1178.4301      1325.3802    
    222000   283.56865      112.07081      459.42037      1098.0908     -783.71069    
    222500   317.09076      102.31048      478.53615      1169.6983     -1721.5564    
    223000   313.00259      100.31401      499.28152      1180.8553     -1251.5809    
    223500   287.78085      106.64836      453.58807      1094.6583      1812.2064    
    224000   299.00496      106.45243      508.95787      1170.6759     -1283.1492    
    224500   320.0235       105.94098      473.69808      1173.937       3859.9024    
    225000   285.65522      109.7894       457.41612      1097.68        1344.5355    
    225500   307.95944      114.69937      490.3724       1176.9662      2285.6927    
    226000   304.78895      119.89934      477.75003      1163.6561     -232.76221    
    226500   279.9922       114.64021      464.86777      1099.466       1436.9818    
    227000   315.39826      109.86145      466.13158      1161.7017      939.117      
    227500   298.77249      123.37741      480.94686      1159.1581      694.61168    
    228000   296.34835      114.57441      430.57563      1095.4822      2447.9448    
    228500   303.89336      124.74716      486.94548      1176.0362      16.688939    
    229000   300.43489      115.73711      486.24983      1159.9079      1969.7555    
    229500   290.13761      96.295293      467.77878      1102.8726     -1335.3705    
    230000   305.95235      107.79684      483.68501      1159.649      -561.94542    
    230500   298.37236      124.57222      481.81899      1160.482       352.43631    
    231000   287.09312      109.61286      468.82499      1111.5826      4201.7648    
    231500   303.33851      106.71982      468.5743       1138.6073     -1116.9896    
    232000   316.20817      117.86551      459.54899      1164.6272      890.45659    
    232500   298.15319      109.78279      461.20317      1124.6697     -809.02246    
    233000   301.79127      114.27595      467.07939      1141.7952      1561.6324    
    233500   295.011        115.48566      493.08151      1156.4158      925.42333    
    234000   298.667        113.90657      455.44158      1123.9861      824.31178    
    234500   291.84824      115.56579      492.34094      1149.8819      499.8626     
    235000   306.83717      105.10829      478.01405      1152.9327     -1338.3276    
    235500   293.93527      103.47511      467.05539      1116.3814      1421.5801    
    236000   303.97015      120.95042      471.09697      1156.5335      1111.0898    
    236500   302.79212      123.01945      468.7601       1154.0781      5990.8696    
    237000   284.39468      128.93572      464.4491       1121.5184      2700.8419    
    237500   309.07299      113.52526      473.74522      1161.2328      1987.5454    
    238000   279.37029      120.97152      497.71152      1137.4861      565.25158    
    238500   292.80359      117.83212      466.39088      1127.9723      3027.3863    
    239000   306.22527      110.96072      473.31689      1152.9516     -2152.4578    
    239500   294.59471      117.83827      458.35676      1123.2706     -165.22052    
    240000   308.00322      111.03442      448.71789      1131.728       237.41371    
    240500   305.95935      112.73877      462.52503      1143.444       1690.6537    
    241000   297.7626       123.33809      447.56245      1123.859       3060.8435    
    241500   299.6139       107.70896      480.29585      1144.4012     -1620.6346    
    242000   304.16919      100.78627      463.45736      1129.0994     -1294.0607    
    242500   280.0365       122.30753      485.61802      1127.9658      1179.9063    
    243000   293.19345      116.51702      491.73606      1152.7264     -1812.8137    
    243500   297.44762      110.03461      449.88562      1112.2937      365.03955    
    244000   298.81749      117.98142      452.15736      1125.0562      954.60556    
    244500   308.29454      119.10595      465.14633      1156.769       912.84123    
    245000   287.54804      120.56686      459.09049      1113.6469      1010.8658    
    245500   294.30543      113.52456      482.68392      1142.7468     -3041.0022    
    246000   315.20949      112.15215      461.13964      1158.6499      1920.1982    
    246500   277.43162      111.0113       475.81682      1102.031       1565.7928    
    247000   301.63736      115.7009       463.90167      1139.7566      2119.663     
    247500   314.03421      119.65774      476.38898      1179.2223      3065.2336    
    248000   286.83612      113.47059      467.79223      1113.9303      640.89719    
    248500   301.74578      110.77731      461.94959      1133.0823      870.8361     
    249000   308.95886      112.43812      460.96715      1147.1557     -587.90641    
    249500   293.33613      103.52215      464.32435      1112.5848     -3057.3458    
    250000   289.94953      120.81884      502.19119      1161.4593      505.1297     
    250500   311.25627      104.71579      473.97002      1156.7026     -253.93525    
    251000   287.16835      110.38511      470.96096      1114.6305     -4927.8255    
    251500   306.24314      106.1977       482.081        1156.9859     -841.06062    
    252000   313.23686      106.13497      457.81762      1145.6474     -22.706646    
    252500   300.62511      115.3147       442.03494      1115.6239      1262.856     
    253000   304.99488      114.62538      467.72885      1148.7434     -800.33776    
    253500   299.69358      104.18595      478.72544      1139.4557      427.20209    
    254000   293.11571      119.20326      444.74675      1108.279      -849.65352    
    254500   323.46856      111.65099      454.10514      1166.4517      1878.3515    
    255000   294.79756      125.69875      472.72088      1145.8719      3813.2216    
    255500   277.33982      121.19695      479.57081      1115.8002      2181.0868    
    256000   315.18493      120.90679      448.74666      1154.9659      4221.5586    
    256500   298.13925      119.38313      472.6161       1145.6571      133.25036    
    257000   293.01489      113.96852      453.98974      1112.1        -732.53718    
    257500   306.65875      120.84771      469.92855      1160.2553      1218.9385    
    258000   301.17255      115.00865      483.08712      1157.3867      305.57162    
    258500   285.61573      116.15731      455.48947      1102.048       2049.3721    
    259000   312.00575      116.24107      464.4401       1160.0898      522.54182    
    259500   303.77904      110.55694      479.92905      1154.6172     -1223.5472    
    260000   292.18159      112.81836      430.44334      1085.856       610.38783    
    260500   313.44049      115.78667      461.92767      1159.7873     -339.14714    
    261000   297.24189      119.22839      462.26202      1133.4819     -1566.239     
    261500   289.31988      112.90173      455.66584      1105.8475     -828.96421    
    262000   311.99337      112.02058      472.04606      1163.4523      973.10379    
    262500   295.80831      111.1054       463.29865      1123.7333      197.88049    
    263000   299.08332      113.22258      443.85406      1112.4877      2887.1751    
    263500   312.88189      116.18426      467.35854      1164.5784     -1263.8344    
    264000   296.29179      120.81087      457.31498      1128.3529      2971.9285    
    264500   294.93966      121.39255      447.17552      1116.2842      3260.7412    
    265000   297.7144       110.24047      505.36719      1168.4766     -96.773849    
    265500   297.98602      100.59865      467.2608       1121.2328     -2862.8658    
    266000   301.15631      107.01221      445.49766      1111.7706      1333.6179    
    266500   307.28629      123.03242      472.35033      1166.0271      1994.7077    
    267000   313.95951      120.90213      425.25453      1129.1935      1518.2435    
    267500   291.97132      107.67071      452.88463      1102.7591      1649.5857    
    268000   311.03114      120.31783      465.68929      1163.6058      563.98712    
    268500   295.04438      124.2168       455.96641      1128.0938     -75.55527     
    269000   298.68553      114.20722      432.47348      1101.3531      2911.3379    
    269500   316.64466      116.98795      466.12479      1171.136       2816.3787    
    270000   305.89379      111.77034      455.23752      1135.0663      2924.9286    
    270500   280.08872      113.56018      463.30756      1097.005      -1370.8082    
    271000   309.86861      114.90229      479.41286      1169.755      -38.015023    
    271500   286.329        123.14501      499.47715      1154.3479      1066.9478    
    272000   304.18632      109.17254      443.34583      1117.406      -1808.4619    
    272500   297.18347      122.03707      494.7548       1168.6748     -2296.8056    
    273000   304.38963      112.24912      470.75222      1148.2665     -1.9899343    
    273500   293.19473      123.00787      444.42263      1111.9062      4167.7252    
    274000   302.56488      119.04002      469.18906      1150.1056      2895.5212    
    274500   315.91635      112.45114      451.71994      1150.8418      1362.3333    
    275000   294.41007      116.14672      466.36114      1129.2405      1013.3477    
    275500   320.39074      115.57048      442.86128      1153.4117      1054.0013    
    276000   300.74888      116.80441      455.41365      1130.7222      2018.7943    
    276500   307.90728      108.88496      446.95181      1127.6343      1423.6672    
    277000   293.76496      121.04594      497.9343       1164.5149      138.17046    
    277500   300.2511       104.79452      466.48256      1128.8568     -1550.4179    
    278000   286.93815      109.3173       478.31502      1120.4893     -1021.0298    
    278500   318.30657      101.07827      492.57085      1184.7586      99.846988    
    279000   297.76141      113.47512      467.46582      1133.8972      155.99061    
    279500   294.02622      117.03978      468.67276      1131.7324      2552.2021    
    280000   308.67203      110.93085      504.20907      1188.3577      3436.5928    
    280500   301.51352      105.75409      455.03822      1120.7164      3454.407     
    281000   300.22146      115.40122      470.42352      1143.3494      4936.5562    
    281500   313.87487      113.48332      482.5981       1178.9611      1993.7587    
    282000   300.8655       95.424525      478.09939      1132.2446     -1279.4268    
    282500   305.55679      103.79957      471.39338      1142.6256      25.396629    
    283000   305.36557      99.24671       510.26536      1176.5896     -1623.4024    
    283500   305.12239      102.10186      458.15128      1126.879      -1766.6482    
    284000   305.8099       105.41075      469.56104      1142.8744      3517.6424    
    284500   305.93042      121.14419      479.23048      1168.5011      4224.058     
    285000   303.73212      104.41558      476.52886      1144.9886     -254.8868     
    285500   287.81021      109.73623      492.64966      1136.8623     -3099.4767    
    286000   305.22711      105.2128       496.52296      1168.5561     -2260.9516    
    286500   299.17635      108.86487      485.7647       1150.2134      2640.115     
    287000   299.90756      112.7269       476.02625      1145.6949      4189.2413    
    287500   295.92131      118.78319      498.66222      1166.9845      919.93483    
    288000   300.33955      108.42065      465.96324      1132.1278      799.0215     
    288500   298.91534      103.02778      484.6474       1142.7743     -388.05388    
    289000   314.10652      109.30581      468.92052      1161.5362     -1612.5524    
    289500   296.72407      104.83722      481.56742      1137.4345     -26.883544    
    290000   299.90067      108.57249      481.87898      1147.3804     -453.62562    
    290500   316.73098      101.52556      470.52043      1160.2296     -3152.8715    
    291000   297.48285      110.36159      480.53548      1143.336       1163.3053    
    291500   296.00116      113.99107      488.69452      1152.373      -1186.0146    
    292000   302.26285      114.50337      490.79507      1166.614       1034.916     
    292500   298.27652      103.34578      484.45732      1141.7159     -536.34299    
    293000   301.05655      99.575129      470.60855      1129.2591      45.915065    
    293500   309.90679      107.99401      477.36421      1160.869       737.20906    
    294000   300.55155      111.17732      481.40975      1150.7247     -2256.9598    
    294500   294.48789      108.29622      475.69536      1130.8688      2406.9641    
    295000   301.66654      113.01536      462.57112      1135.7947     -730.64186    
    295500   296.97748      117.90638      492.43957      1161.8464      635.87599    
    296000   304.3303       113.53978      459.82116      1138.5159      1353.0037    
    296500   289.94559      106.05012      492.7142       1137.2062     -1010.3928    
    297000   299.14085      119.32953      505.98209      1180.8295      4074.0222    
    297500   290.91154      112.67503      485.87767      1138.7884      1923.2746    
    298000   287.3159       128.75179      457.98002      1120.2903      4439.1312    
    298500   306.03219      115.57882      489.06008      1172.9543      1023.1368    
    299000   293.13403      109.9968       487.56595      1141.9257     -2164.8915    
    299500   299.55997      106.7645       467.73746      1130.7982     -2182.1956    
    300000   312.00978      121.79652      471.98096      1173.1936      1102.0332    
    300500   290.63454      112.17289      477.3479       1129.2421      3313.703     
    301000   296.14996      112.26393      472.83917      1135.0668      674.55943    
    301500   306.20406      121.68208      482.04177      1172.3585      959.22707    
    302000   289.30779      119.01884      460.74113      1117.0175      2658.3001    
    302500   296.7316       111.45724      474.24604      1136.7471      1923.0945    
    303000   305.36487      128.39686      480.7896       1176.2627      2548.3787    
    303500   298.26975      112.31941      440.72813      1106.9478      1517.0411    
    304000   296.71764      112.06698      461.96777      1125.0527      1718.2577    
    304500   313.63593      122.97661      480.14839      1185.5609     -318.43292    
    305000   296.11454      115.58876      455.29473      1120.7814      2730.2612    
    305500   285.39242      115.35788      484.03338      1129.3777      0.52112038   
    306000   312.44989      112.17397      515.12207      1207.5294      1988.1361    
    306500   294.6619       99.208664      472.4123       1118.8213     -1167.8894    
    307000   294.33102      109.33294      463.52409      1119.4429     -448.21593    
    307500   324.85323      109.65144      469.42538      1182.3438      1068.3076    
    308000   296.17709      107.11946      449.8482       1106.9817      156.40932    
    308500   306.1586       102.20224      442.57427      1113.3267     -1562.8952    
    309000   304.06044      116.80127      507.33169      1188.7868     -134.00535    
    309500   305.1879       106.62178      441.54329      1114.9126      2370.6814    
    310000   291.03782      118.52989      458.42966      1117.4298      3516.3209    
    310500   321.54883      106.66791      492.53529      1196.3337      618.4699     
    311000   288.07776      98.287103      476.55937      1109.8197     -1923.7159    
    311500   303.87467      102.84932      452.65976      1119.8179     -2357.7662    
    312000   321.27307      111.32857      474.53397      1182.481       1692.3132    
    312500   291.98639      119.75404      451.96839      1113.9542      3720.3121    
    313000   295.31647      124.82808      465.95165      1139.1956      2329.1686    
    313500   301.81152      118.61308      501.85475      1180.9453      3498.4633    
    314000   293.91375      115.08289      466.32067      1127.2145     -571.29583    
    314500   300.41715      112.65906      471.72997      1142.2771      1546.5586    
    315000   315.00458      114.27396      458.18328      1157.4348      3135.2904    
    315500   296.3517       111.66395      463.40764      1125.4099      336.86675    
    316000   304.77081      117.65508      470.20055      1153.8286      1865.613     
    316500   297.12393      128.75016      478.50263      1159.0252      1054.7595    
    317000   299.30474      117.37414      461.31805      1134.5145      1372.4918    
    317500   308.0246       111.16591      460.05066      1143.232       3061.705     
    318000   303.98254      111.96481      476.26597      1152.7399      1675.0139    
    318500   287.7997       112.72062      507.37219      1154.5497     -2242.2612    
    319000   305.73528      102.08709      472.59462      1142.4458      895.70277    
    319500   297.62017      110.15884      479.79103      1142.6438      510.57109    
    320000   301.42224      117.10017      468.32553      1145.1803      446.6748     
    320500   280.58407      126.07073      489.37212      1136.5         1802.7088    
    321000   295.25166      117.61079      479.17642      1145.0827      969.02992    
    321500   289.5758       126.82547      498.05166      1162.6323      187.55986    
    322000   294.80402      108.0575       493.65496      1149.1767     -4352.176     
    322500   287.65435      109.60741      487.58596      1131.3803     -579.78653    
    323000   304.87322      108.39903      485.56066      1160.1229      1356.4263    
    323500   286.80005      110.12786      484.06217      1126.7905     -1103.285     
    324000   297.16225      113.847        476.0416       1141.7322      2275.1665    
    324500   311.36195      111.38735      483.43473      1173.0351     -315.5807     
    325000   303.07506      108.12901      452.59431      1123.5472      1810.5736    
    325500   297.74631      119.10339      453.64408      1125.6757      1993.6655    
    326000   320.95196      109.20438      469.44731      1174.6738      2335.5638    
    326500   286.57865      112.21282      485.60438      1130.0066     -2182.1771    
    327000   294.33312      111.88584      478.10025      1136.5758      252.80065    
    327500   301.28975      114.9642       481.50784      1155.9806      87.563553    
    328000   297.38408      106.68587      467.61103      1126.5524     -702.90572    
    328500   291.95275      109.60295      496.50306      1148.2753     -577.1867     
    329000   296.88251      119.66965      476.25567      1147.2494      157.43346    
    329500   305.9095       121.72561      447.53843      1137.3516      4564.5864    
    330000   287.67499      118.93232      485.16613      1138.3237      2717.031     
    330500   298.36848      110.4046       455.60346      1120.0917      1180.02      
    331000   303.19951      100.58747      485.91111      1149.5536     -2391.9591    
    331500   298.15942      113.55818      452.02089      1119.2744      2566.684     
    332000   292.63456      124.86289      462.51264      1130.811       2994.8701    
    332500   310.00154      119.86033      465.22068      1160.7677     -1538.36      
    333000   289.75263      126.28163      473.02672      1137.3919      964.30826    
    333500   307.15619      110.3726       461.42319      1142.1986     -1456.4646    
    334000   299.76174      117.793        455.3554       1129.8193     -1148.8474    
    334500   296.1081       119.4262       466.52978      1135.842       1247.1886    
    335000   310.34307      120.20352      437.03174      1133.5562     -109.29401    
    335500   315.774        114.15288      444.87425      1145.4336      1007.9486    
    336000   296.25257      106.23633      455.22421      1111.6148      342.15124    
    336500   311.15103      118.32351      441.70035      1137.8452      2129.1888    
    337000   326.52085      107.17003      432.52554      1146.0594     -824.34063    
    337500   301.23148      112.60665      441.73871      1113.7457     -213.75898    
    338000   304.54133      121.0319       458.35978      1144.9385      1948.913     
    338500   303.57421      123.65992      446.52976      1133.9406      2660.7903    
    339000   303.81449      113.81564      439.7545       1117.7672      3482.6908    
    339500   305.54549      119.79195      465.37645      1152.58        2361.969     
    340000   302.67611      113.5904       450.21147      1125.8849      1.3865416    
    340500   303.32976      118.13065      431.90869      1113.3363     -379.24561    
    341000   301.94634      123.81133      479.02448      1163.5637      53.50622     
    341500   301.25401      109.01516      456.92528      1125.3826      430.06786    
    342000   287.07867      110.59207      457.39308      1101.1031      2581.2516    
    342500   309.39225      117.13008      476.21805      1167.9033      1673.6385    
    343000   295.2875       121.08574      471.83594      1141.2838     -242.25313    
    343500   291.64279      116.91871      454.22018      1112.7326      447.84116    
    344000   299.51365      112.22993      475.17442      1143.6146      1115.3031    
    344500   298.19294      116.53356      436.35068      1106.6418      702.05185    
    345000   295.32891      115.4963       443.02318      1106.9585      1936.0134    
    345500   317.14017      130.68239      442.89658      1162.5224      3816.4825    
    346000   302.4361       126.51001      433.26228      1121.4096     -991.72865    
    346500   300.29587      114.05469      450.50816      1122.2257      1752.3294    
    347000   303.7119       115.49282      474.74111      1154.2405      484.39008    
    347500   300.98883      117.19144      459.87903      1136.0202      1362.1755    
    348000   293.38284      115.48675      449.2157       1109.5275      749.14648    
    348500   296.41625      129.52805      467.10857      1147.0948     -916.78033    
    349000   304.19208      127.14979      438.28274      1130.3308      2749.9033    
    349500   288.61023      125.11764      454.41587      1115.4956      1422.4544    
    350000   294.73635      122.69841      478.67918      1148.7161      1747.191     
    350500   301.23856      110.43208      457.59629      1127.4418     -124.12674    
    351000   304.2948       118.34985      454.84432      1138.2832      1517.9499    
    351500   307.80976      112.74017      473.67715      1158.0338      1944.4861    
    352000   295.14307      110.98715      455.08999      1114.171      -698.7142     
    352500   303.87038      112.10423      465.79816      1142.2033      735.33148    
    353000   313.12516      101.89491      462.5328       1145.9151      2936.171     
    353500   294.58862      120.83081      448.46513      1116.3602      804.53676    
    354000   308.17985      105.51166      478.1045       1155.9199     -2081.0461    
    354500   306.36239      109.7564       446.15264      1124.8377      644.14796    
    355000   291.62212      120.16321      466.85693      1128.5755     -907.63013    
    355500   309.36608      123.92925      467.05546      1165.4913      4020.7602    
    356000   288.62326      126.22415      460.85659      1123.067       3868.2348    
    356500   297.91713      108.73129      455.35507      1117.3318      332.07725    
    357000   314.25483      115.31638      461.16295      1160.0646      121.94318    
    357500   285.04193      127.80047      455.92132      1113.0574      3047.5689    
    358000   297.4063       116.53203      456.59747      1125.4263     -1726.2587    
    358500   302.72137      129.60604      481.36834      1173.1415      2215.3446    
    359000   289.07688      115.65109      474.30171      1126.7815     -432.04171    
    359500   294.30715      114.78466      469.72161      1131.0478      1902.7701    
    360000   305.88218      113.01085      469.31911      1150.3668     -1738.2242    
    360500   300.0063       117.64655      431.06561      1105.8373     -2395.7514    
    361000   296.39495      119.83541      471.82518      1142.0792      1519.3006    
    361500   309.72701      115.12069      468.33677      1158.6343      1640.5696    
    362000   298.47036      115.77681      422.44859      1092.4982      4276.558     
    362500   299.10298      121.93983      473.30017      1150.6876      2766.1502    
    363000   311.56906      118.2648       450.46841      1147.3309      928.76545    
    363500   301.95163      111.54749      430.06451      1102.3497      2704.073     
    364000   306.59012      105.89145      480.72758      1155.9706      81.118712    
    364500   307.60484      111.9559       462.79792      1145.9897     -743.3601     
    365000   294.49276      107.36403      472.09892      1126.3492     -3399.4756    
    365500   303.57495      106.05487      487.59345      1157.4006      342.18789    
    366000   296.77978      115.05743      458.38047      1124.5712     -222.81144    
    366500   300.80376      110.31132      452.92353      1121.8409      1800.4517    
    367000   288.71028      113.84582      495.6722       1145.6659     -1143.1439    
    367500   307.06697      109.68957      459.60392      1139.5306      1719.7717    
    368000   314.66804      109.90821      443.82802      1138.0888     -1307.8879    
    368500   302.4324       110.60824      464.45263      1136.6913      878.96609    
    369000   296.83167      100.29103      482.88171      1134.4024     -1167.8051    
    369500   292.61468      121.09534      480.13776      1144.6316      663.11624    
    370000   299.65383      116.04971      476.85928      1149.3795      1050.6486    
    370500   305.74002      118.41712      453.44752      1139.6375      917.45368    
    371000   301.61642      115.43938      467.76634      1143.3209      2175.3874    
    371500   299.6582       124.48808      457.64918      1138.6159      5311.515     
    372000   283.91796      122.92297      479.43268      1129.604       2229.2157    
    372500   294.52622      120.15003      479.20646      1146.3048      1124.8977    
    373000   295.52716      121.62247      471.92544      1142.355       2927.0553    
    373500   296.56364      117.86649      458.95165      1127.5501      5984.8293    
    374000   304.43977      119.52695      458.08051      1142.9657      3877.441     
    374500   298.81424      114.25639      461.35761      1130.5254      1636.1342    
    375000   288.77273      105.43532      503.96461      1145.6638     -2113.6625    
    375500   304.8329       113.57932      467.32917      1146.9968     -1718.3608    
    376000   304.83859      109.51726      465.00617      1140.6223     -610.71346    
    376500   293.02693      121.89992      470.85558      1136.9196      62.063536    
    377000   294.86913      118.52307      491.39197      1157.5002     -822.26819    
    377500   305.20743      104.43339      459.37413      1130.5913     -1101.1715    
    378000   302.18778      115.32981      449.49648      1126.0025     -656.53333    
    378500   309.34101      121.0419       472.78111      1168.2831      2285.9275    
    379000   302.75598      111.16762      450.92918      1124.3282      583.87145    
    379500   287.19508      126.45857      455.43231      1115.225       2994.7699    
    380000   295.00414      120.20146      503.34736      1171.3847      1192.3395    
    380500   300.0391       113.54182      452.14232      1122.8702      933.60909    
    381000   291.75773      111.87951      456.37165      1110.0583     -1529.0364    
    381500   313.60049      123.93255      467.48067      1173.7833      1184.0478    
    382000   289.01564      127.74412      469.43916      1133.8982      278.46392    
    382500   300.40012      112.81637      450.00502      1120.6778      2391.8024    
    383000   316.34565      118.68025      483.8147       1189.9629      1395.9181    
    383500   300.05729      110.16304      459.02265      1126.4055     -2656.4647    
    384000   303.73779      114.17334      438.79429      1117.0223      415.94301    
    384500   307.17355      118.12552      503.44748      1192.008       237.98811    
    385000   295.51866      111.87678      474.17195      1134.8401     -2570.473     
    385500   288.79705      112.2446       467.011        1115.5646     -1227.122     
    386000   302.38038      119.18391      498.77293      1179.4907      1063.0292    
    386500   302.0488       107.59618      481.43814      1149.9524     -856.14732    
    387000   296.59346      113.34917      452.43797      1116.5744     -1513.9122    
    387500   296.28845      119.36918      503.85304      1173.4431      1138.8515    
    388000   297.63936      123.05101      467.11855      1142.8991      3564.3666    
    388500   292.95816      114.00544      451.8797       1109.9215      1123.3652    
    389000   306.55538      118.88323      463.24746      1151.4177      5523.078     
    389500   305.37782      124.67004      455.60107      1147.3714      4197.1096    
    390000   306.66538      109.16172      444.44913      1123.1022      1432.6874    
    390500   297.40713      112.88273      485.72409      1150.9051     -3841.8621    
    391000   303.28938      113.82612      466.38067      1143.4287     -664.86288    
    391500   292.64308      120.49757      461.9549       1125.9037      2385.3285    
    392000   296.07934      121.93192      492.47213      1164.2366      1402.7315    
    392500   302.61698      110.76944      466.23602      1138.9787      320.42943    
    393000   280.3529       114.59846      498.81123      1134.0375     -653.37302    
    393500   312.77368      106.32584      462.27692      1149.4375      303.88392    
    394000   301.64278      116.67896      453.20834      1130.0514      706.51376    
    394500   295.72284      103.12293      478.00895      1130.3024     -1537.0654    
    395000   295.78823      107.53841      487.02404      1143.8544     -1201.7207    
    395500   304.77319      106.39578      466.64089      1139.0141      1313.9944    
    396000   297.22054      117.43577      458.40138      1127.789       763.77899    
    396500   299.98298      115.13694      485.71125      1157.93        2758.9992    
    397000   294.38648      113.71798      463.43706      1123.8439     -1270.9594    
    397500   283.99563      123.66657      483.68154      1134.7407     -390.93201    
    398000   308.90413      115.11467      478.72784      1167.4913     -3274.7996    
    398500   288.75884      112.81718      468.63932      1117.6946     -1894.2817    
    399000   297.30995      103.26943      478.2854       1133.6727     -2899.8612    
    399500   310.79414      93.89775       500.30857      1171.3649     -1978.9341    
    400000   291.21539      115.98404      458.76155      1115.5456      321.79808    
    400500   300.02873      112.96651      473.88791      1144.0212     -463.64735    
    401000   305.60898      104.67751      497.87827      1170.0853     -4597.7613    
    401500   295.43668      97.884765      482.14498      1128.6689     -2824.6739    
    402000   290.79821      115.52537      473.22029      1128.7709     -133.98865    
    402500   305.73773      114.66668      488.69254      1171.1278      64.693023    
    403000   290.85689      115.49644      476.56707      1132.1978      4455.7929    
    403500   314.54552      109.10705      432.83089      1126.063       2741.6996    
    404000   298.8019       113.91685      491.57565      1160.381       2190.5646    
    404500   294.22453      119.39223      466.6721       1132.4524      4373.4223    
    405000   309.22639      104.31246      446.90967      1125.4693      1927.1074    
    405500   297.92085      112.9919       476.0888       1142.333      -96.980351    
    406000   293.43686      112.34964      491.89777      1149.1728     -1034.4633    
    406500   288.54467      108.42138      473.04544      1117.3071     -1534.0261    
    407000   295.97439      114.43508      487.13929      1151.212       563.83107    
    407500   287.82518      122.83624      497.84939      1155.1899      2150.178     
    408000   303.44067      104.77043      451.81741      1120.0907      448.58174    
    408500   299.63475      119.62807      459.47659      1135.5398      694.22438    
    409000   300.53261      116.59807      483.72568      1158.4262     -684.50726    
    409500   288.208        113.26177      475.30719      1123.7841      1411.9767    
    410000   292.96861      130.57319      460.13487      1134.7639      1911.2757    
    410500   304.46174      128.41053      460.19637      1154.006       5055.4639    
    411000   293.92775      122.89405      445.76862      1114.4996      4583.1768    
    411500   300.26336      116.45905      452.23567      1126.2972      1403.3538    
    412000   305.45784      113.91046      477.88358      1159.0429      539.46468    
    412500   293.7471       117.16906      465.61242      1128.283       966.41323    
    413000   294.58753      125.87521      448.24309      1121.1805      1400.4849    
    413500   309.13892      121.6946       446.20571      1141.9851      2035.0071    
    414000   304.44223      113.71255      470.15589      1149.2313      1888.5676    
    414500   307.10036      112.65542      430.13661      1113.0911      942.75853    
    415000   298.43865      114.29761      469.99105      1138.5026      241.61176    
    415500   308.96072      120.70687      450.19486      1144.6556      1569.0786    
    416000   287.14657      115.6455       479.74754      1128.637      -1331.9044    
    416500   291.12571      117.08874      478.81027      1136.5325      2572.0524    
    417000   290.54654      122.61128      466.38045      1128.5496      1667.3533    
    417500   282.47451      126.10485      458.37541      1109.048       2641.0817    
    418000   307.78878      125.14916      465.86731      1162.594      -743.28113    
    418500   306.52895      124.04988      446.69477      1139.9826      2127.8145    
    419000   302.19782      109.58764      420.08878      1090.8713      1044.102     
    419500   309.60614      119.86526      455.22249      1150.0402      2067.0409    
    420000   297.89702      128.71602      454.65453      1136.5786      2285.1353    
    420500   286.64272      113.19142      468.5745       1114.0743      910.64586    
    421000   312.59664      104.75946      459.26509      1144.5305     -1507.8408    
    421500   297.31848      122.017        457.31086      1131.4616     -2126.305     
    422000   306.93921      127.52161      429.5535       1127.0749      2014.4068    
    422500   295.53489      115.15404      486.53313      1150.5087      245.30157    
    423000   297.68328      111.72622      468.61555      1133.1529     -395.14189    
    423500   296.61882      121.09208      467.4035       1139.33        878.94411    
    424000   304.33368      106.34034      464.22398      1135.7256     -1386.2638    
    424500   300.54121      108.62404      436.94474      1103.6872     -3112.1467    
    425000   299.8455       114.36246      497.36681      1168.5557      450.56267    
    425500   293.24448      121.91012      471.51011      1137.9883      1946.8651    
    426000   296.92497      114.39067      449.76147      1115.5551      1883.819     
    426500   310.32475      120.21624      470.39046      1166.8936      3097.1946    
    427000   299.142        107.57763      463.52419      1126.6219     -184.07623    
    427500   301.3521       107.46493      453.24975      1120.339      -1119.4949    
    428000   311.85227      118.57325      478.89066      1176.5875      3435.5807    
    428500   301.9797       111.64277      458.09073      1130.5233      1950.7734    
    429000   306.56232      112.43616      455.75956      1137.4956     -684.2459     
    429500   316.14498      115.47677      478.59383      1181.166       87.003111    
    430000   300.72224      104.91489      466.05776      1129.4273     -1072.6225    
    430500   295.87596      111.68817      475.55052      1136.6936     -92.480179    
    431000   314.50693      108.02445      500.05024      1192.1281     -4066.5682    
    431500   292.57782      107.39526      478.52004      1129.2454     -682.63945    
    432000   295.73786      111.80234      457.60953      1118.6103     -1897.6387    
    432500   307.40203      117.65341      502.18347      1190.6962     -372.03006    
    433000   290.01516      105.90456      483.52221      1127.9979     -2926.5496    
    433500   287.89433      129.03479      455.09756      1118.765       2300.5615    
    434000   316.84917      119.27796      484.50333      1192.1843      2505.2013    
    434500   291.62085      110.55792      458.76489      1110.8757      840.18875    
    435000   291.58352      113.21886      459.17145      1113.8739      4771.2131    
    435500   330.0746       113.0145       463.13232      1189.1101      1977.2056    
    436000   283.78006      109.40547      461.79004      1098.1878      1197.1531    
    436500   300.22376      108.13949      453.951        1119.6194     -923.37979    
    437000   322.38554      116.39337      475.34783      1190.4255      344.93225    
    437500   289.17983      122.8822       451.68406      1111.5861      333.5418     
    438000   318.13342      118.26894      429.69054      1138.7474      3379.0846    
    438500   306.15094      110.55611      486.98956      1166.0816     -2444.5247    
    439000   291.82575      118.5302       439.31181      1099.7755      119.7952     
    439500   309.88244      111.9705       458.29342      1145.7294     -3431.156     
    440000   294.11221      110.90081      510.93526      1168.0156      2209.1655    
    440500   274.24678      110.69371      467.98782      1087.9701     -1100.4918    
    441000   310.41491      111.96963      484.66641      1173.0904     -1472.887     
    441500   311.80665      108.50069      486.4093       1173.9489      25.067604    
    442000   289.31454      98.337563      452.57937      1088.187      -1823.7011    
    442500   300.87589      120.96539      489.48455      1169.1899      2224.4499    
    443000   320.2189       108.05588      463.38419      1166.1009     -1669.5079    
    443500   283.87564      111.26383      452.36413      1090.7977      1383.7612    
    444000   295.89904      105.95411      508.97642      1164.4283     -1502.4851    
    444500   308.29354      110.99019      470.52072      1154.0258      1838.1874    
    445000   290.85357      110.53341      447.90941      1098.5709     -803.77971    
    445500   305.76878      123.27265      489.29983      1180.3988      318.52519    
    446000   304.74121      107.8093       469.32317      1143.0505     -615.36612    
    446500   288.53634      100.1114       461.14861      1097.0849     -728.90449    
[...]
   1895500   292.64643      120.62893      456.59288      1120.6793      1369.5182    
   1896000   303.95941      118.7315       445.76709      1128.9648      411.12016    
   1896500   311.78637      124.01032      451.11141      1154.1229      1335.3651    
   1897000   287.92703      125.26535      442.87504      1102.8337      2308.4593    
   1897500   297.69814      128.65411      448.46344      1129.9563      1526.6832    
   1898000   313.91641      132.9024       452.61511      1168.4743      2827.0983    
   1898500   293.57296      114.72087      436.02384      1095.9228      3075.3822    
   1899000   303.68028      117.39292      449.46896      1130.8097     -887.82315    
   1899500   304.4089       128.15709      487.10524      1180.5632      4263.1976    
   1900000   270.62945      120.14549      451.07363      1073.7901      1972.7495    
   1900500   298.57266      123.11299      453.48305      1131.0588      829.91402    
   1901000   318.64356      112.45005      476.83882      1181.0242     -2189.7922    
   1901500   275.54097      103.12605      448.29004      1063.108       2053.2773    
   1902000   303.7775       112.09677      459.85687      1136.082      -2800.3384    
   1902500   311.7623       119.31811      477.98517      1176.2598     -2613.259     
   1903000   283.46396      115.44251      430.55435      1072.4021      2970.384     
   1903500   303.18913      124.66222      465.37272      1153.0707      1089.1277    
   1904000   309.69997      125.4292       477.11073      1177.6666     -73.583155    
   1904500   288.31041      113.64985      429.43447      1078.4896      1936.8625    
   1905000   296.03938      118.96017      483.80389      1152.5224      2087.1628    
   1905500   310.15149      120.39413      448.26024      1144.6195      2783.1962    
   1906000   289.52052      116.7559       414.78191      1069.1903      3210.3958    
   1906500   307.85348      130.91685      464.56702      1167.1815      618.81765    
   1907000   298.4526       121.9565       467.29697      1143.4933     -1898.5841    
   1907500   287.64084      122.08475      421.45192      1077.6986     -413.22769    
   1908000   308.79693      132.59964      466.87294      1172.9223      191.06433    
   1908500   303.23206      134.00915      458.63015      1155.7548      2258.931     
   1909000   289.88727      118.84996      426.09836      1083.2819     -510.12577    
   1909500   306.34276      112.64075      478.25741      1159.7903      941.04697    
   1910000   302.27922      113.49344      464.16258      1139.002      -2408.8505    
   1910500   280.59529      119.84155      456.54182      1097.4614      338.55568    
   1911000   310.41445      105.69475      474.57676      1156.725      -2133.3313    
   1911500   303.05218      109.79109      451.27101      1123.8435      387.65157    
   1912000   296.13855      117.83045      442.54854      1110.3215      810.32919    
   1912500   305.91597      119.20894      474.08877      1161.3973     -89.770932    
   1913000   293.34472      127.28409      448.81429      1120.8526      2827.8344    
   1913500   297.94405      112.80408      438.30351      1104.403       905.11701    
   1914000   312.01297      119.81355      465.55843      1164.794      -260.40815    
   1914500   300.94554      128.31141      450.99462      1138.1753      2922.7425    
   1915000   300.09982      103.78083      455.83239      1116.912      -1028.7867    
   1915500   300.80392      116.47353      462.43901      1137.5189     -2521.2559    
   1916000   288.4469       118.21444      489.62969      1143.5029      384.25348    
   1916500   305.37474      119.87248      431.32973      1118.2967      1350.3772    
   1917000   300.54097      127.16832      450.4907       1135.777       3573.2556    
   1917500   293.21463      123.31096      470.98108      1138.8047      1420.3946    
   1918000   310.23235      121.91083      432.63826      1130.6644      3801.712     
   1918500   306.83308      118.13761      468.65951      1156.5999      809.90819    
   1919000   288.66903      117.01177      466.24056      1119.3236      458.9237     
   1919500   299.10794      126.30955      461.3313       1143.0977      4083.6117    
   1920000   300.82514      125.59828      470.51888      1154.7629      1012.2285    
   1920500   291.45639      104.97261      471.20269      1117.4228     -4.2245528    
   1921000   297.84512      109.48788      487.79892      1150.3985     -2194.9895    
   1921500   293.72224      111.31227      501.30364      1158.0712      200.19645    
   1922000   292.43106      111.48811      465.21351      1119.7592     -1236.8661    
   1922500   304.14204      116.18786      484.07164      1165.0648     -60.878493    
   1923000   310.82741      103.7928       465.60124      1146.6144     -2526.4281    
   1923500   295.37925      117.53076      442.99557      1109.0588      427.51165    
   1924000   307.80942      119.51939      481.13662      1172.2719      3758.7696    
   1924500   301.36273      110.16204      460.9531       1130.7592     -1345.8995    
   1925000   292.40018      114.0387       451.25084      1108.2897      2238.2814    
   1925500   310.92287      116.52369      494.49388      1188.4152      1322.8706    
   1926000   302.90759      107.62199      452.0669       1122.2018     -1320.5203    
   1926500   302.93305      108.28062      433.59838      1104.4392      543.62383    
   1927000   318.9866       109.92169      493.20379      1195.4978     -393.44644    
   1927500   283.32972      110.44877      480.96597      1117.5707     -2270.8578    
   1928000   302.91981      109.95091      433.60184      1106.0884      1728.548     
   1928500   306.75076      119.03684      495.48055      1184.1673      2046.4604    
   1929000   286.54126      104.63411      473.61418      1110.3682      298.85917    
   1929500   299.18556      105.34781      458.71357      1119.6623      1242.3261    
   1930000   321.78667      118.97474      471.80936      1188.3563      1243.9837    
   1930500   286.81575      115.6907       461.93667      1110.257       1116.6348    
   1931000   297.66099      117.19229      470.00818      1139.9702      1471.599     
   1931500   307.02117      122.21501      486.90955      1179.2766      2166.5029    
   1932000   280.69463      105.03067      469.77322      1096.0664     -1853.8566    
   1932500   295.23796      112.64329      478.62612      1139.5395      217.44833    
   1933000   305.13835      114.39399      512.92523      1193.9748      578.05122    
   1933500   277.54393      109.65018      462.43763      1087.4993     -450.77787    
   1934000   283.45807      116.0811       498.20209      1140.6775     -218.95994    
   1934500   308.20297      113.64734      513.97287      1199.9669     -3050.6043    
   1935000   280.42004      122.67499      451.0742       1094.5017     -944.58629    
   1935500   307.27084      107.79651      479.25322      1157.6654      197.40361    
   1936000   294.51193      122.47283      492.20991      1161.6046      438.12307    
   1936500   288.96645      109.05502      449.91207      1095.5907      129.95337    
   1937000   305.53969      117.22151      483.23967      1167.862       1707.5223    
   1937500   298.1944       118.62324      496.3783       1168.7619      2922.1218    
   1938000   287.674        113.36553      438.6708       1086.2598      1959.8171    
   1938500   307.33638      111.58751      491.82712      1174.152       492.073      
   1939000   324.16846      113.42629      449.17522      1164.5968      711.67178    
   1939500   282.23552      111.60469      443.12241      1078.8511      4165.3854    
   1940000   300.88025      122.75826      482.4544       1163.9607      5706.1789    
   1940500   312.5191       107.74766      482.00171      1170.1113      1371.558     
   1941000   283.52048      102.82537      464.71282      1094.0484     -799.04358    
   1941500   313.1994       116.48525      454.6699       1152.7804      66.945853    
   1942000   309.68758      112.50066      495.9917       1183.596      -1123.0753    
   1942500   285.31153      101.47022      452.40696      1083.7134     -2583.5905    
   1943000   307.94901      100.7434       478.22676      1150.8452     -3092.0751    
   1943500   319.45448      107.47541      483.75529      1184.4719     -604.89349    
   1944000   281.90809      109.03759      456.01855      1088.5721     -328.87156    
   1944500   301.26552      113.3415       482.77221      1155.5772      2474.075     
   1945000   314.65015      113.59025      495.60941      1193.519      -199.44373    
   1945500   282.9938       116.78149      442.62089      1084.9345      3389.6364    
   1946000   291.72752      115.32409      498.26364      1155.3388      1715.8521    
   1946500   304.88067      119.95665      491.37578      1177.5095      2577.4734    
   1947000   289.85627      107.7146       456.00068      1101.9913     -405.98676    
   1947500   303.82291      117.18449      473.42818      1154.8254      35.226713    
   1948000   304.13074      113.72907      487.40178      1165.9152     -3682.1208    
   1948500   294.64707      115.79234      432.55406      1095.5192      300.55351    
   1949000   293.20708      121.99141      464.88795      1131.378       1527.7462    
   1949500   315.25837      105.09344      464.13559      1154.6779     -1488.196     
   1950000   306.88009      123.29308      415.63493      1108.818       1015.5301    
   1950500   305.19986      114.67238      445.61135      1127.0535      2156.0592    
   1951000   305.3652       111.33209      472.72591      1151.1348     -1517.7062    
   1951500   291.01755      115.31809      460.80693      1116.5576      2734.4662    
   1952000   306.46144      124.07721      445.6954       1138.8852      2991.5971    
   1952500   324.03257      122.05269      434.6493       1158.4449      3278.543     
   1953000   289.14083      122.4078       437.67803      1097.0333      4317.3351    
   1953500   303.15497      120.90331      464.28368      1148.1593      400.58562    
   1954000   306.44743      112.51847      475.03074      1156.6358      2222.1257    
   1954500   290.98783      111.25727      456.49599      1108.1307     -1074.7226    
   1955000   296.35527      122.3558       475.89929      1148.6001      385.79594    
   1955500   312.0983       109.01739      461.46045      1150.0583     -1054.9962    
   1956000   294.42884      123.26055      445.25917      1115.2872     -374.95791    
   1956500   305.41401      121.0146       472.96005      1161.1421      1807.3743    
   1957000   284.36983      123.19953      481.70619      1132.9932     -375.94699    
   1957500   290.86189      106.37372      465.3273       1111.8445     -968.20984    
   1958000   306.20595      120.30769      474.84228      1163.7881      1069.9223    
   1958500   309.14394      117.95281      448.12972      1140.1766      1121.1333    
   1959000   289.14072      114.51481      464.77057      1116.2326      412.8775     
   1959500   305.23156      123.29145      458.62859      1148.7487     -547.04747    
   1960000   301.72794      109.19473      480.23877      1149.7558     -1016.341     
   1960500   293.51725      105.08029      445.6323       1095.7872     -1647.6117    
   1961000   298.4593       113.49558      481.85125      1149.5991      901.3138     
   1961500   311.70835      123.68813      464.56625      1167.1107      3905.1371    
   1962000   290.31457      118.56574      444.73789      1102.4307      1285.1679    
   1962500   314.21         106.6401       444.83817      1134.9803     -1072.2199    
   1963000   310.68451      113.40265      467.22941      1157.5871     -1150.6229    
   1963500   294.78862      126.24457      422.78386      1096.4641      1673.7245    
   1964000   304.05147      127.2203       461.43208      1153.2895      3655.6802    
   1964500   324.75595      105.5681       450.60256      1159.257      -1361.7654    
   1965000   286.93359      108.54275      452.71878      1094.11       -1153.7773    
   1965500   301.05863      119.10249      468.17254      1146.3544     -2148.7418    
   1966000   303.76753      119.36199      471.89771      1155.3696     -56.495428    
   1966500   289.33395      111.94512      444.95998      1094.2112     -16.192815    
   1967000   309.87978      127.31673      446.36737      1149.1447      1030.8543    
   1967500   313.91457      116.70617      462.79535      1162.4549      3026.5875    
   1968000   291.58335      122.16467      410.29332      1073.9413     -961.86614    
   1968500   302.9303       125.68461      474.25604      1162.4957     -316.36169    
   1969000   288.79087      129.60319      498.21239      1164.1131     -2110.9992    
   1969500   287.39443      119.07646      401.91064      1054.6914     -691.11218    
   1970000   301.17131      128.2026       473.2683       1160.7595     -474.87175    
   1970500   294.4582       123.18644      478.71897      1148.7274     -260.45998    
   1971000   279.73678      113.76923      429.70843      1062.9613      1081.3653    
   1971500   310.36371      128.01516      474.84101      1179.2154      1192.7202    
   1972000   297.46513      119.99361      470.92511      1143.3248      266.32223    
   1972500   270.40529      120.88568      445.94072      1068.9811     -293.38842    
   1973000   321.74465      111.0231       482.77431      1191.2916      840.90299    
   1973500   303.75881      116.00328      452.78166      1132.8786      1571.4263    
   1974000   273.97567      110.05706      451.01174      1069.8538      470.50174    
   1974500   314.51323      123.50656      484.52616      1192.0978     -1440.3385    
   1975000   307.45332      109.42083      445.85234      1126.2277     -62.739473    
   1975500   287.71421      110.5187       417.43633      1062.2532      581.2563     
   1976000   316.19882      121.67991      491.93035      1200.8056      3790.022     
   1976500   295.62301      111.34048      453.10663      1113.4322      1344.5408    
   1977000   284.76838      103.85516      443.98796      1076.6707     -224.36364    
   1977500   317.26107      121.38128      498.43279      1208.9821     -792.4482     
   1978000   289.6382       119.82915      480.99482      1138.695       3123.4992    
   1978500   285.1763       110.37786      441.04196      1081.0049     -1086.6107    
   1979000   326.3924       107.70694      492.42677      1206.259      -2304.112     
   1979500   299.46821      106.49086      474.17192      1136.7886     -4254.1567    
   1980000   280.55254      109.35396      445.19057      1075.5431      1131.1814    
   1980500   320.4394       123.21618      491.66692      1209.9534      1469.0714    
   1981000   302.85926      117.41757      475.92268      1155.7634      4242.1784    
   1981500   289.68393      110.3223       422.40604      1070.6843     -2358.9776    
   1982000   305.59683      114.4558       513.01862      1194.9814     -752.13058    
   1982500   298.57988      107.52721      496.46252      1158.4659     -1935.6451    
   1983000   278.84211      106.57104      440.2647       1064.658      -1944.9383    
   1983500   318.89069      118.10992      495.45114      1205.7553      193.12203    
   1984000   305.70991      116.24037      471.40444      1155.3618      280.26493    
   1984500   287.6656       104.36336      431.31311      1069.8843      514.47668    
   1985000   305.62243      118.73338      501.45226      1187.7401     -81.438831    
   1985500   297.67368      112.36854      481.33881      1146.5007     -72.882502    
   1986000   282.22838      101.49569      458.42061      1084.027       306.62037    
   1986500   321.43702      112.46101      474.66959      1184.0535      1501.1136    
   1987000   312.81988      94.312234      464.71949      1139.9522     -3093.651     
   1987500   284.05747      103.17336      452.06481      1082.7456     -3722.3901    
   1988000   323.63248      116.64753      482.41742      1200.0649     -1634.4447    
   1988500   296.05316      103.74736      483.87641      1137.4077     -379.3918     
   1989000   284.28695      106.83227      450.45403      1085.2199      1712.743     
   1989500   318.2501       117.06681      500.33317      1208.4046     -255.0627     
   1990000   285.68707      113.44336      484.70926      1128.6863      3057.7961    
   1990500   285.83647      116.97144      453.95237      1101.7349     -135.69321    
   1991000   310.48849      123.01505      510.88855      1210.4946      2321.7454    
   1991500   298.20101      105.81846      476.41607      1136.0071     -402.94485    
   1992000   285.39484      104.28771      458.92881      1093.2075     -675.7227     
   1992500   312.69826      113.77703      480.48056      1174.9522     -411.35991    
   1993000   296.8665       118.34491      459.13389      1128.7732     -1192.159     
   1993500   315.30978      105.48898      422.45942      1113.4927     -291.90185    
   1994000   314.4496       112.7155       451.82427      1148.4867      1017.462     
   1994500   296.72851      100.71172      461.80264      1113.5525     -3075.0349    
   1995000   305.93644      110.85843      452.22516      1131.2212      190.95997    
   1995500   302.03335      114.68557      486.99824      1162.5732      1009.1065    
   1996000   295.29623      104.80221      464.63714      1117.8176     -224.10433    
   1996500   301.15764      117.20257      455.9448       1132.4106      1617.6498    
   1997000   307.52256      106.35446      484.15362      1161.5912      332.14128    
   1997500   293.88644      109.36446      455.4721       1110.5968      1976.384     
   1998000   292.26685      115.56529      468.26313      1126.581      -936.25871    
   1998500   308.70638      110.9876       473.97489      1158.244      -2056.056     
   1999000   293.24669      116.23348      454.42343      1115.2291     -1222.33      
   1999500   289.64272      115.74512      475.44676      1129.0713     -969.97467    
   2000000   299.42889      123.38443      476.22918      1155.6664      1303.7918    
Loop time of 705.599 on 64 procs for 2000000 steps with 624 atoms

Performance: 489.797 ns/day, 0.049 hours/ns, 2834.471 timesteps/s, 1.769 Matom-step/s
99.7% CPU use with 64 MPI tasks x 1 OpenMP threads

MPI task timing breakdown:
Section |  min time  |  avg time  |  max time  |%varavg| %total
---------------------------------------------------------------
Pair    | 48.982     | 59.102     | 68.172     |  65.1 |  8.38
Bond    | 6.2374     | 6.6446     | 7.2434     |   7.4 |  0.94
Kspace  | 344.88     | 355.63     | 367.35     |  27.2 | 50.40
Neigh   | 17.239     | 19.284     | 20.97      |  28.0 |  2.73
Comm    | 229.2      | 239.89     | 250.85     |  35.8 | 34.00
Output  | 0.12728    | 0.17855    | 0.23749    |   7.1 |  0.03
Modify  | 10.59      | 14.883     | 18.618     |  52.2 |  2.11
Other   |            | 9.987      |            |       |  1.42

Nlocal:           9.75 ave          15 max           5 min
Histogram: 5 3 3 7 11 12 5 9 6 3
Nghost:        2137.22 ave        2234 max        2053 min
Histogram: 3 7 6 12 8 11 5 5 4 3
Neighs:        3168.39 ave        5145 max        1180 min
Histogram: 2 5 7 7 14 11 5 4 4 5

Total # of neighbors = 202777
Ave neighs/atom = 324.96314
Ave special neighs/atom = 6.75
Neighbor list builds = 116148
Dangerous builds = 0
System init for write_data ...
PPPM initialization ...
  using 12-bit tables for long-range coulomb
  G vector (1/distance) = 0.20024252
  grid = 6 6 6
  stencil order = 5
  estimated absolute RMS force accuracy = 0.015629438
  estimated relative force accuracy = 4.7067587e-05
  using double precision KISS FFT
  3d grid and FFT values/proc = 343 8
Generated 153 of 153 mixed pair_coeff terms from geometric mixing rule
Total wall time: 0:11:45
