LAMMPS data file via write_data, version 29 Aug 2024, timestep = 2002000, units = real

624 atoms
18 atom types
572 bonds
17 bond types
780 angles
24 angle types
832 dihedrals
28 dihedral types
260 impropers
8 improper types

4.329834684457593 24.473000315540983 xlo xhi
4.376989110619343 25.175128889379714 ylo yhi
4.44727040870711 25.5246035912922 zlo zhi

Masses

1 12.011
2 12.011
3 1.008
4 1.008
5 1.008
6 1.008
7 12.011
8 12.011
9 12.011
10 12.011
11 12.011
12 12.011
13 1.008
14 1.008
15 1.008
16 1.008
17 1.008
18 1.008

Pair Coeffs # lj/cut/coul/long

1 0.076 3.55
2 0.076 3.55
3 0.03 2.5
4 0.03 2.5
5 0.03 2.5
6 0.03 2.5
7 0.07 3.55
8 0.07 3.55
9 0.07 3.55
10 0.07 3.55
11 0.07 3.55
12 0.07 3.55
13 0.03 2.42
14 0.03 2.42
15 0.03 2.42
16 0.03 2.42
17 0.03 2.42
18 0.03 2.42

Bond Coeffs # harmonic

1 549 1.34
2 340 1.08
3 340 1.08
4 340 1.08
5 340 1.08
6 469 1.4
7 469 1.4
8 469 1.4
9 469 1.4
10 469 1.4
11 367 1.08
12 367 1.08
13 367 1.08
14 367 1.08
15 367 1.08
16 367 1.08
17 469 1.4

Angle Coeffs # harmonic

1 35 120
2 35 120
3 35 120
4 35 120
5 35 117
6 35 117
7 63 120
8 63 120
9 63 120
10 63 120
11 35 120
12 35 120
13 35 120
14 35 120
15 35 120
16 35 120
17 35 120
18 35 120
19 35 120
20 35 120
21 63 120
22 35 120
23 35 120
24 63 120

Dihedral Coeffs # opls

1 0 14 0 0
2 0 14 0 0
3 0 14 0 0
4 0 14 0 0
5 0 7.25 0 0
6 0 7.25 0 0
7 0 7.25 0 0
8 0 7.25 0 0
9 0 7.25 0 0
10 0 7.25 0 0
11 0 7.25 0 0
12 0 7.25 0 0
13 0 7.25 0 0
14 0 7.25 0 0
15 0 7.25 0 0
16 0 7.25 0 0
17 0 7.25 0 0
18 0 7.25 0 0
19 0 7.25 0 0
20 0 7.25 0 0
21 0 7.25 0 0
22 0 7.25 0 0
23 0 7.25 0 0
24 0 7.25 0 0
25 0 7.25 0 0
26 0 7.25 0 0
27 0 7.25 0 0
28 0 7.25 0 0

Improper Coeffs # cvff

1 2.5 -1 2
2 2.5 -1 2
3 2.5 -1 2
4 2.5 -1 2
5 2.5 -1 2
6 2.5 -1 2
7 2.5 -1 2
8 2.5 -1 2

Atoms # full

179 30 5 0.125383 9.24208127957914 9.113459363365479 7.947304319622036 -302 -57 24
599 76 17 0.147221 6.73409332350666 6.736000514637384 7.435314944700517 -309 -61 29
594 76 12 -0.147307 7.604322223909184 4.846130787386318 7.2857377884907875 -309 -61 29
416 61 14 0.147221 4.740231905375771 7.758947520426677 7.441144542117667 -305 -60 25
600 76 18 0.147243 8.002366805172665 5.092838865692015 6.316084586919366 -309 -61 29
593 76 11 -0.147259 6.803067623795542 5.800513147463793 7.929772618634447 -309 -61 29
591 76 9 -0.147296 6.360942592033931 5.497159275844211 9.25759025481344 -309 -61 29
415 61 13 0.147239 6.057170301786312 8.984030123962519 9.16157878365012 -305 -60 25
561 73 15 0.1474 5.468603321232829 7.6280146848454455 5.065732960011879 -307 -60 29
409 61 7 -0.147307 4.966374895597198 8.99070116862351 9.157161346186943 -305 -60 25
320 53 14 0.147221 5.64655728696968 6.078500244830912 12.864649486885254 -300 -57 24
314 53 8 -0.147259 4.754295050771949 5.580249349520371 12.787641484046192 -300 -57 24
405 60 15 0.1474 8.387138076377088 6.753522026778362 14.133145936669823 -300 -65 29
407 60 17 0.147221 6.971114393007489 4.790558643343951 14.9208991810719 -300 -65 29
597 76 15 0.1474 5.637236621754431 6.248653117776259 9.793736133232073 -309 -61 29
402 60 12 -0.147307 7.145217527493333 5.352557588788715 16.97117619547526 -300 -65 29
408 60 18 0.147243 6.50569650725587 4.584902186321147 17.302500502707375 -300 -65 29
401 60 11 -0.147259 7.461935331637212 5.5335677435667865 15.612731955980024 -300 -65 29
406 60 16 0.1474 7.506691804570071 6.08089124234984 18.971507914947285 -300 -65 29
277 47 1 -0.250766 4.370585325314728 7.578842781400821 19.226370072691065 -308 -55 23
400 60 10 -0.147296 7.679721582284389 6.287559060963554 17.910584735252158 -300 -65 29
522 70 12 -0.147307 4.628402220663389 8.299758985791922 15.64177690046019 -305 -60 23
280 47 4 0.125383 5.275506700786002 7.7377664542746665 19.787753085373318 -308 -55 23
404 60 14 0.147221 8.972802871907794 7.912336163851515 18.297549642233452 -300 -65 29
399 60 9 -0.147296 8.17021211527429 6.672062639422731 15.199704253921658 -300 -65 29
528 70 18 0.147243 5.407721077058345 7.569615132176521 15.409466760571027 -305 -60 23
398 60 8 -0.147259 8.481490021061603 7.316623557784238 17.514808272667963 -300 -65 29
397 60 7 -0.147307 8.667187329470224 7.542587356049733 16.112631025050398 -300 -65 29
403 60 13 0.147239 9.138994091864735 8.4346126476793 15.698677150328733 -300 -65 29
281 47 5 0.125383 4.55312322759551 5.547715247194478 18.996431799927684 -308 -55 23
553 73 7 -0.147307 5.3261874809356256 8.008674839571466 24.02463906708561 -307 -60 28
296 50 2 -0.250766 6.891562436628666 4.478770251410299 23.013016805694896 -303 -66 31
554 73 8 -0.147259 5.073912564236419 8.999021803696433 23.062416905557427 -307 -60 28
299 50 5 0.125383 5.956856540341075 4.781522658479083 23.507912045839433 -303 -66 31
555 73 9 -0.147296 5.357661634098332 8.405459539835855 25.392937992772502 -307 -60 28
559 73 13 0.147239 5.330516826436217 6.977807813446837 23.730401748940615 -307 -60 28
560 73 14 0.147221 5.0798246754370275 8.827961787191294 21.94927151997731 -307 -60 28
28 5 4 0.125383 5.6529982884903465 11.75268611312774 7.104788316317885 -308 -56 27
26 5 2 -0.250766 6.4067892725581235 13.734984572345786 6.756551484652231 -308 -56 27
30 5 6 0.125383 7.14152082991813 14.419276079268382 7.082626856582506 -308 -56 27
27 5 3 0.125383 7.242219067705781 12.200515039103976 7.785331442798979 -308 -56 27
563 73 17 0.147221 5.187345020806886 9.968482003571799 5.68821376256228 -307 -60 29
29 5 5 0.125383 5.619287008898013 14.08517168254435 6.103261243843083 -308 -56 27
25 5 1 -0.250766 6.402236867154114 12.514366851445795 7.235280152084586 -308 -56 27
199 34 1 -0.250766 9.157496575918032 12.065149557784073 4.842794135309576 -302 -63 26
557 73 11 -0.147259 5.155415411858034 9.746971182068137 4.649771723302913 -307 -60 29
610 77 16 0.1474 4.332820995243579 13.07944426495332 13.412708734956 -300 -59 26
576 74 18 0.147243 9.193291218761525 9.92541549609891 11.873296256665594 -304 -56 25
206 35 2 -0.250766 6.940513133155735 13.007768779172817 14.513255015201963 -302 -61 28
210 35 6 0.125383 7.714510905667138 13.637020745384289 14.014022918279597 -302 -61 28
291 49 3 0.125383 7.658578695199724 14.120408482097787 10.694231708419188 -312 -60 30
417 61 15 0.1474 4.630032080715131 10.478180722695928 10.726770546663978 -305 -60 25
208 35 4 0.125383 5.93906448634137 11.129091581376102 14.420975710120738 -302 -61 28
205 35 1 -0.250766 6.696046944120697 11.777755799474003 14.011614017423783 -302 -61 28
207 35 3 0.125383 7.122262767882658 11.454827124411292 13.150413929121298 -302 -61 28
485 67 11 -0.147259 6.719678089399364 10.381753962951063 19.839364288883267 -305 -59 27
221 37 5 0.125383 8.92940562906448 11.462890761360235 18.124445294943293 -302 -55 28
238 40 4 0.125383 7.7577370099345035 14.023567207998056 17.540406509419164 -300 -56 28
486 67 12 -0.147307 5.849938784787893 11.457853620079621 19.767084231366802 -305 -59 27
492 67 18 0.147243 5.146931950802141 11.3580069395922 18.971918282923138 -305 -59 27
527 70 17 0.147221 5.728202967039183 9.991567486751498 16.4261909500432 -305 -60 23
521 70 11 -0.147259 4.79455802098864 9.614617700535234 16.11279647786138 -305 -60 23
453 64 15 0.1474 5.212762001939752 14.649475202111091 17.3961584120877 -308 -52 30
491 67 17 0.147221 6.672580377515147 9.581204166528995 19.099136198563528 -305 -59 27
209 35 5 0.125383 6.599200980885773 13.33520898683984 15.498810814410371 -302 -61 28
489 67 15 0.1474 8.47663021664603 9.652806995070893 20.821075596547217 -305 -59 27
488 67 14 0.147221 6.944405269688713 13.327570768780028 22.47231743789117 -305 -59 27
483 67 9 -0.147296 7.739490551962113 10.40834756956625 20.788866742358564 -305 -59 27
482 67 8 -0.147259 6.915732482364717 12.511521286694421 21.739148447471024 -305 -59 27
556 73 10 -0.147296 4.9342875677532305 10.350354942779783 23.4195339425748 -307 -60 28
564 73 18 0.147243 4.5836881657492885 11.703897775645121 25.073623562865365 -307 -60 28
562 73 16 0.1474 4.834300909213101 11.09523750668242 22.61284896881898 -307 -60 28
558 73 12 -0.147307 4.8028428660236395 10.692254643901897 24.77162301979456 -307 -60 28
487 67 13 0.147239 8.638131874912922 11.347561407343873 22.521408154971475 -305 -59 27
481 67 7 -0.147307 7.79641829008159 11.440015483172974 21.77447742985312 -305 -59 27
484 67 10 -0.147296 5.960461404073708 12.526308526893812 20.729961253922326 -305 -59 27
202 34 4 0.125383 8.206152099849387 11.931416050496965 25.416131533779506 -302 -63 25
490 67 16 0.1474 5.281693351410996 13.365656928020462 20.598432204845466 -305 -59 27
75 13 3 0.125383 9.283982135062093 14.42629245202052 24.297717015602906 -300 -59 29
92 16 2 -0.250766 6.266939305441547 17.60421591157666 6.0794956898538395 -300 -60 27
91 16 1 -0.250766 7.468128638336371 17.617789256496167 6.593950119844655 -300 -60 27
95 16 5 0.125383 5.622986121306328 18.423464101696737 6.228975517819679 -300 -60 27
96 16 6 0.125383 5.921731791545019 16.888788989661624 5.409377796759818 -300 -60 27
93 16 3 0.125383 8.247030337622714 16.835252754149916 6.3143898679717125 -300 -60 27
94 16 4 0.125383 7.7392396333213025 18.391679595930253 7.2747665912561255 -300 -60 27
214 36 4 0.125383 6.57967015002882 18.999920458458956 9.375531839608396 -301 -61 27
290 49 2 -0.250766 7.307316498666679 15.891500922497434 11.802842052981545 -312 -60 30
211 36 1 -0.250766 7.16486001494809 19.829916891966633 9.788251832499986 -301 -61 27
612 77 18 0.147243 4.573089422511081 15.080263732153579 11.77944523152761 -300 -59 26
215 36 5 0.125383 8.898313494643219 18.640004863595358 10.289654498533707 -301 -61 27
293 49 5 0.125383 7.042794859230199 16.944712162986633 11.884561613278994 -312 -60 30
212 36 2 -0.250766 8.452015734119808 19.6139882156058 10.174807323517813 -301 -61 27
289 49 1 -0.250766 7.356261035348 15.176266265791057 10.67654629097764 -312 -60 30
294 49 6 0.125383 7.6996131397052565 15.455419592393229 12.727771400284464 -312 -60 30
292 49 4 0.125383 6.902777991010234 15.683818880466946 9.799959814982621 -312 -60 30
237 40 3 0.125383 7.712591361213619 15.473637879513154 18.87156441167565 -300 -56 28
12 2 6 0.125383 4.632759820497869 16.905603767836354 19.695870772673686 -310 -60 31
436 63 10 -0.147296 5.24592250192672 18.768944853344436 16.95445708875095 -306 -59 22
236 40 2 -0.250766 9.114727450273392 15.511443232476019 17.229001431727305 -300 -56 28
118 20 4 0.125383 6.361470242777601 19.349299340604873 19.886376502444676 -304 -60 14
438 63 12 -0.147307 6.377008771218709 19.550582627631222 16.643145112494103 -306 -59 22
442 63 16 0.1474 5.379547040107241 18.15218444751997 17.730279049774524 -306 -59 22
444 63 18 0.147243 7.25302047405042 19.527456208622006 17.31700685860212 -306 -59 22
455 64 17 0.147221 4.850114805075727 15.678761817402656 15.255691170537228 -308 -52 30
235 40 1 -0.250766 8.118086702505927 14.986859920699535 17.97678293052955 -300 -56 28
11 2 5 0.125383 6.052030391449745 16.37171512082629 20.850391867727026 -310 -60 31
73 13 1 -0.250766 8.769038825729456 15.3756998639303 24.232962453659432 -300 -59 29
120 20 6 0.125383 6.77139249782274 19.44054493388697 22.9136774248718 -304 -60 14
8 2 2 -0.250766 4.96358220376224 16.44075250471633 20.638951236958945 -310 -60 31
77 13 5 0.125383 8.067599383612968 17.083207696644514 23.284232736405805 -300 -59 29
117 20 3 0.125383 7.527294044742447 18.362190601774497 20.78582886887068 -304 -60 14
74 13 2 -0.250766 8.666396584531519 16.262150641317284 23.28132288652194 -300 -59 29
115 20 1 -0.250766 6.790737000335966 19.12320399199514 20.793500809465463 -304 -60 14
10 2 4 0.125383 4.615049228059818 15.357598466670558 22.36128714414206 -310 -60 31
116 20 2 -0.250766 6.392749866921043 19.69013178293869 21.965578446228186 -304 -60 14
76 13 4 0.125383 8.14740142183752 15.700676018671935 25.14978932420594 -300 -59 29
78 13 6 0.125383 9.204144585693124 16.206827633091656 22.32716883892273 -300 -59 29
263 44 5 0.125383 4.597870978823787 19.553478934862348 24.84296146086951 -305 -61 31
590 76 8 -0.147259 7.298528968195338 24.096009639996858 9.136155485949791 -309 -62 29
370 57 16 0.1474 8.339327813061276 20.6391561530381 6.018019356920298 -303 -54 31
592 76 10 -0.147296 7.883827138831799 24.39181131435425 7.890271480658523 -309 -62 29
365 57 11 -0.147259 5.728869397799942 22.40767020816702 4.954687467459758 -303 -54 31
372 57 18 0.147243 6.2398548631496 21.493659120634604 6.898726540423477 -303 -54 31
539 71 17 0.147221 4.358927585172536 22.839928623800496 7.932797037085785 -302 -58 27
364 57 10 -0.147296 7.714948523741338 21.150984966149615 5.299132395089287 -303 -54 31
371 57 17 0.147221 4.809534540266588 22.672887724906843 5.25230869553061 -303 -54 31
366 57 12 -0.147307 6.5225492829819185 21.63657230546236 5.837976768331179 -303 -54 31
598 76 16 0.1474 8.5355018551625 23.665762058493975 7.413788970080925 -309 -62 29
596 76 14 0.147221 7.47271717054973 23.095816796593226 9.506044995974573 -309 -62 29
213 36 3 0.125383 6.72705087470492 20.78699907717788 9.580989406418642 -301 -61 27
589 76 7 -0.147307 6.546269842255019 25.055118883499738 9.826781830023833 -309 -62 29
432 62 18 0.147243 8.68800057956123 24.449910431412327 11.987044784301975 -310 -62 20
441 63 15 0.1474 5.29834496490717 20.985692089231556 13.720891522469458 -306 -59 22
322 53 16 0.1474 5.296058507106244 24.591623670234284 13.656891602084965 -300 -58 24
216 36 6 0.125383 8.986289592719833 20.48045133312985 10.45624567731084 -301 -61 27
595 76 13 0.147239 6.147299291447575 24.83183972485549 10.792112136662078 -309 -62 29
316 53 10 -0.147296 4.5514255565457 25.118851874460184 13.160158950297363 -300 -58 24
435 63 9 -0.147296 5.2436285518571495 20.3594191976687 14.615733639794456 -306 -59 22
154 26 4 0.125383 5.075734477898953 23.32067926972482 19.40618068427561 -304 -56 21
443 63 17 0.147221 7.290756904784646 20.9336927892001 15.21967823674175 -306 -59 22
389 59 11 -0.147259 8.172399867292105 22.3701079925156 19.29439867135128 -307 -62 28
437 63 11 -0.147259 6.411570911874727 20.30008611786499 15.422807507754158 -306 -59 22
390 59 12 -0.147307 9.331267170016272 22.21026329105451 20.067165727401573 -307 -62 28
155 26 5 0.125383 5.0125682100573625 22.250673445835872 17.20119649126203 -304 -56 21
395 59 17 0.147221 7.2202652924781425 21.93544095977849 19.358603959333678 -307 -62 28
393 59 15 0.1474 7.535591656943115 23.05658709770524 17.323914825685492 -307 -62 28
387 59 9 -0.147296 8.324505645152485 23.0814111308867 18.08644583796405 -307 -62 28
363 57 9 -0.147296 6.099124090157478 22.656610624185 24.69497654057983 -303 -54 30
297 50 3 0.125383 7.761193351950711 24.634855645095016 21.1433851152277 -303 -67 31
361 57 7 -0.147307 7.332307277916819 22.217345744544907 24.20572733270113 -303 -54 30
119 20 5 0.125383 5.5733171732136935 20.372195845755524 21.915367480571042 -304 -60 14
362 57 8 -0.147259 8.159772710202812 21.454079156852814 25.05569042690007 -303 -54 30
367 57 13 0.147239 7.598162925536391 22.452007230236013 23.212014733709204 -303 -54 30
298 50 4 0.125383 5.973331882520075 25.154456944001033 21.120641150266607 -303 -67 31
369 57 15 0.1474 5.365826624721145 23.22690242084534 24.23360624413609 -303 -54 30
396 59 18 0.147243 9.291526654107978 21.536672078093005 20.891181932047154 -307 -62 28
295 50 1 -0.250766 6.891917647070947 25.012516342629795 21.700257635233925 -303 -67 31
368 57 14 0.147221 9.175638417314477 21.272393738880027 24.722942176842395 -303 -54 30
300 50 6 0.125383 7.750599814647356 25.090548898330958 23.64462977073765 -303 -67 31
258 43 6 0.125383 10.473469967833172 4.759235620016861 6.208168288471802 -304 -64 27
178 30 4 0.125383 11.839289674841602 9.482818895657752 8.329527063849259 -302 -57 24
180 30 6 0.125383 9.77042855669592 8.779026612356466 6.174746380280738 -302 -57 24
177 30 3 0.125383 12.029899790544505 9.01652039746246 6.535479748432156 -302 -57 24
175 30 1 -0.250766 11.39690180803562 9.144039393264148 7.390419208825266 -302 -57 24
176 30 2 -0.250766 10.08096731290177 8.991504900653336 7.215053936300847 -302 -57 24
35 6 5 0.125383 14.395041954726715 8.45091561733966 9.112354436891279 -307 -50 33
423 62 9 -0.147296 11.899878554846534 4.801308691437256 12.223872243873217 -310 -61 20
431 62 17 0.147221 10.250574817263818 4.8691419275689185 10.640862775314744 -310 -61 20
568 74 10 -0.147296 11.090112555602929 9.389489250189513 12.815153845294763 -304 -56 25
572 74 14 0.147221 13.005309317832761 9.142590816134632 13.573804355612651 -304 -56 25
425 62 11 -0.147259 10.625338491304388 4.544906400283481 11.637214054278662 -310 -61 20
574 74 16 0.1474 10.907631984659577 8.331550262720608 12.644993841431118 -304 -56 25
429 62 15 0.1474 12.604142580065195 5.310427939080364 11.58768379106533 -310 -61 20
427 62 13 0.147239 13.272635649994188 4.386786213927954 13.815959688943948 -310 -61 20
503 68 17 0.147221 13.15003170532509 4.440414603720321 16.944865227559678 -311 -57 27
497 68 11 -0.147259 13.537616492712138 5.3338844179114275 17.399427184270444 -311 -57 27
138 23 6 0.125383 11.907422052740287 7.218676672042395 19.66066542031981 -300 -64 30
498 68 12 -0.147307 12.874632174741818 6.563668759440494 17.082884679234507 -311 -57 27
502 68 16 0.1474 13.073853753424524 8.647037668961225 17.143148471376048 -311 -57 27
496 68 10 -0.147296 13.529000538753898 7.7677010362932855 17.480692031916252 -311 -57 27
504 68 18 0.147243 11.997163508263302 6.52348692286974 16.505100990217038 -311 -57 27
134 23 2 -0.250766 11.391953203120403 7.993820978203774 20.242766590927133 -300 -64 30
283 48 1 -0.250766 12.17342046844945 8.263179864915937 24.60251922580799 -304 -58 28
288 48 6 0.125383 10.554549744989934 7.017619791622472 24.58816017623525 -304 -58 28
287 48 5 0.125383 12.01282387228288 6.334355760277963 25.252755389611764 -304 -58 28
137 23 5 0.125383 11.843363789440197 8.957669554571362 20.381408608700234 -300 -64 30
174 29 6 0.125383 12.875593261214968 6.298696470822647 21.569756045353294 -302 -60 27
133 23 1 -0.250766 10.364747321576344 7.434059260165103 20.95142467079917 -300 -64 30
284 48 2 -0.250766 11.566341681796416 7.139592339684535 24.817741604225866 -304 -58 28
285 48 3 0.125383 11.637892403237675 9.02553626815373 24.012742162677625 -304 -58 28
286 48 4 0.125383 13.087599568598893 8.488426679238458 25.060342919235502 -304 -58 28
136 23 4 0.125383 9.760112506455666 8.011181727772714 21.637639735573593 -300 -64 30
173 29 5 0.125383 13.267748183697497 5.663730469909076 23.19390953217848 -302 -60 27
135 23 3 0.125383 10.11991791109839 6.4041630264589795 20.778039892913817 -300 -64 30
170 29 2 -0.250766 13.195227335693094 5.4537312398088975 22.118590226064775 -302 -60 27
200 34 2 -0.250766 10.05808388714307 11.085394836609886 4.850677642399881 -302 -63 26
204 34 6 0.125383 10.963461053449905 11.172630935658665 5.4621978087276215 -302 -63 26
130 22 4 0.125383 14.194918930853577 11.529958215482361 6.08310138545533 -304 -61 34
376 58 10 -0.147296 13.17618834475424 14.05280038680054 9.489249619663315 -306 -63 26
129 22 3 0.125383 14.228621603794064 10.252701474528697 4.826208639676861 -304 -61 34
374 58 8 -0.147259 11.769994038555037 14.00331988819574 9.62552088750748 -306 -63 26
23 4 5 0.125383 14.386201770081726 14.115760457650824 4.897565930733236 -304 -58 29
201 34 3 0.125383 9.387144712680753 12.969027199815937 5.369533823569635 -302 -63 26
565 74 7 -0.147307 12.448710488828135 11.276800542952838 13.56929875081745 -304 -56 25
380 58 14 0.147221 11.424661846073688 13.141318428099884 10.29246329140771 -306 -63 26
569 74 11 -0.147259 10.270751075670642 11.677061103864222 12.598123741440531 -304 -56 25
567 74 9 -0.147296 11.428722207582243 12.13924956935821 13.231543287918495 -304 -56 25
575 74 17 0.147221 9.546260741453644 12.317866650311203 12.07290741090678 -304 -56 25
570 74 12 -0.147307 10.122347839839946 10.329802006147366 12.371626321843834 -304 -56 25
571 74 13 0.147239 13.32634656905699 11.671418632819176 13.909758810913893 -304 -56 25
573 74 15 0.1474 11.46883554597634 13.219459235231477 13.308043964732915 -304 -56 25
566 74 8 -0.147259 12.279230481385692 9.897749981516252 13.400538268719574 -304 -56 25
382 58 16 0.1474 13.888427156245777 13.293071252904086 9.820332092174219 -306 -63 26
34 6 4 0.125383 14.28954755531814 10.395309667819419 10.100630274074307 -307 -50 33
217 37 1 -0.250766 10.370796636805068 10.714814827753091 16.826439535193053 -302 -55 28
218 37 2 -0.250766 9.764918133050866 10.875991242154006 18.023514797562317 -302 -55 28
541 72 7 -0.147307 13.121209217615338 13.193717291585289 17.048168739811622 -302 -64 30
222 37 6 0.125383 10.286779721392673 10.447816288679576 18.914751738225085 -302 -55 28
542 72 8 -0.147259 12.68128306155834 12.824195258488498 18.35769114601377 -302 -64 30
547 72 13 0.147239 12.512514092530772 13.960091376629045 16.456417945759608 -302 -64 30
548 72 14 0.147221 11.632169247984535 13.169857170843176 18.64272755654249 -302 -64 30
219 37 3 0.125383 11.335591300774425 10.255323779186647 16.547768988191983 -302 -55 28
543 72 9 -0.147296 14.39104581970683 12.777508569994842 16.581302087456656 -302 -64 30
220 37 4 0.125383 9.87536459066019 11.221522056585734 16.062797781314647 -302 -55 28
544 72 10 -0.147296 13.418397675374877 11.831421564139863 19.073961911591272 -302 -64 30
550 72 16 0.1474 13.012903412309498 11.411950186604674 20.010903005179344 -302 -64 30
619 78 13 0.147239 12.747397645922728 12.465965024894551 23.04164552198442 -299 -58 24
616 78 10 -0.147296 10.444418935177723 13.759495018335086 20.735944891470204 -299 -58 24
620 78 14 0.147221 10.680035595162355 11.83348438045077 21.768909851928647 -299 -58 24
613 78 7 -0.147307 12.287233066451936 13.12540396412593 22.33339892521866 -299 -58 24
615 78 9 -0.147296 12.936423551506374 14.380176158732741 22.04687131412249 -299 -58 24
614 78 8 -0.147259 11.145017731331926 12.782978522311744 21.556768643164773 -299 -58 24
203 34 5 0.125383 9.891593663247056 10.223849973495248 25.361680744806876 -302 -63 25
622 78 16 0.1474 9.499309638292877 13.510698960861506 20.323672988738892 -299 -58 24
621 78 15 0.1474 13.81352346217618 14.723900852126283 22.64443123774999 -299 -58 24
383 58 17 0.147221 13.409532417944911 17.087490403547882 7.875759122074012 -306 -63 26
375 58 9 -0.147296 11.561373554051565 16.14708229517651 8.540328735532427 -306 -63 26
352 56 10 -0.147296 11.05360946888512 18.74873577702615 5.577534109141893 -300 -61 26
360 56 18 0.147243 12.083062371283216 17.13059752933811 4.497711915815739 -300 -61 26
381 58 15 0.1474 10.881627058133251 16.97394337841132 8.24155965816868 -306 -63 26
358 56 16 0.1474 10.188833116730446 18.1303745864349 5.67551272654381 -300 -61 26
377 58 11 -0.147259 12.987089433018792 16.180604367388796 8.294000728782958 -306 -63 26
354 56 12 -0.147307 12.154018215896782 18.175234870318995 4.886684944464664 -300 -61 26
353 56 11 -0.147259 13.39482924444986 18.8810686580385 4.813193596614806 -300 -61 26
373 58 7 -0.147307 10.961794536220722 15.030629927087292 9.16858500499555 -306 -63 26
378 58 12 -0.147307 13.71866414948283 15.16219318338607 8.809460808748895 -306 -63 26
379 58 13 0.147239 9.934993537854343 15.006320687494153 9.373497314086016 -306 -63 26
350 56 8 -0.147259 11.179680999848944 19.94939276243667 6.201767375050708 -300 -61 26
125 21 5 0.125383 12.52683439672656 19.288532587737215 10.67753299699072 -306 -69 33
242 41 2 -0.250766 10.851450405776905 17.027476577758243 12.950441009631916 -303 -61 29
244 41 4 0.125383 10.37967429238835 15.148735962726628 12.519274935892838 -303 -61 29
246 41 6 0.125383 11.60421189962211 17.658214775860092 13.351052172663861 -303 -61 29
243 41 3 0.125383 12.190516003742989 15.320253472045366 13.173004770156345 -303 -61 29
241 41 1 -0.250766 11.174837856270116 15.737971524724033 12.924012763809783 -303 -61 29
245 41 5 0.125383 9.895666832978161 17.486050849572926 12.70892088951452 -303 -61 29
39 7 3 0.125383 13.84955403242507 17.14567197165819 14.252803411808955 -303 -62 30
42 7 6 0.125383 14.202302341440825 14.954971328064714 13.576813756901233 -303 -62 30
188 32 2 -0.250766 14.151653103141223 17.25945512371583 17.291732802549262 -305 -63 33
1 1 1 -0.250766 10.331897842115762 19.543614026386805 16.043783485295684 -306 -56 27
3 1 3 0.125383 9.487085022596847 19.116171684281717 16.587405871869386 -306 -56 27
192 32 6 0.125383 14.005632086747854 16.580643718396594 16.47449365631035 -305 -63 33
4 1 4 0.125383 11.117882109006294 18.889302625544346 15.686070569198572 -306 -56 27
624 78 18 0.147243 10.586127629514554 15.759008739696233 19.86472456619002 -299 -58 24
189 32 3 0.125383 13.917649238798852 15.711024250993104 18.700965829822948 -305 -63 33
240 40 6 0.125383 9.547556950542443 16.531742778432907 17.392221990602327 -300 -56 28
239 40 5 0.125383 9.496848847769336 15.079716616888822 16.363603566034293 -300 -56 28
187 32 1 -0.250766 14.154404503979299 16.764120470348143 18.529217665716985 -305 -63 33
190 32 4 0.125383 14.283705638559741 17.464328744654352 19.347579780054986 -305 -63 33
617 78 11 -0.147259 12.31288283409841 15.319931923317178 21.1979234898239 -299 -58 24
618 78 12 -0.147307 11.065996786178665 15.01618616415967 20.537064116845883 -299 -58 24
623 78 17 0.147221 12.725581354022431 16.26125961219658 20.844999045470345 -299 -58 24
479 66 17 0.147221 11.28761173735737 19.14047023206085 21.65783130448395 -305 -55 22
480 66 18 0.147243 12.146077227446487 19.953696803520806 23.799921506390312 -305 -55 22
473 66 11 -0.147259 12.10998663087264 19.839395797056774 21.58965458926943 -305 -55 22
359 56 17 0.147221 14.21685261978641 18.29032648647369 25.49385878051703 -300 -61 25
68 12 2 -0.250766 14.254871273614103 22.05628585352494 9.184825664316678 -301 -62 24
72 12 6 0.125383 13.98644399358295 21.71483348901689 8.207537044075403 -301 -62 24
356 56 14 0.147221 10.365469526393198 20.35004296143248 6.764954409976053 -300 -61 26
349 56 7 -0.147307 12.417374550811074 20.60128610395239 6.144386800989594 -300 -61 26
69 12 3 0.125383 12.333439258050372 22.83901642360499 9.372277266734724 -301 -62 24
351 56 9 -0.147296 13.573386977869498 20.125026026682107 5.431564322043705 -300 -61 26
257 43 5 0.125383 12.178145578637048 24.8027921983781 6.016955338376452 -304 -65 27
355 56 13 0.147239 12.446812629782187 21.588490649095135 6.690474087109788 -300 -61 26
254 43 2 -0.250766 11.121519539878296 24.843169253560795 5.736686782666004 -304 -65 27
253 43 1 -0.250766 10.680069303897781 24.07901386824092 4.719571568428261 -304 -65 27
347 55 17 0.147221 14.353724106626666 24.069072144355715 5.751913653230494 -305 -64 30
255 43 3 0.125383 9.66206835081147 24.013305309256666 4.499942586821298 -304 -65 27
126 21 6 0.125383 11.164545917680428 20.074455631090515 9.748420053638188 -306 -69 33
124 21 4 0.125383 12.283207350598957 20.687193642512902 12.66627882175767 -306 -69 33
70 12 4 0.125383 13.397804899388143 23.05078774793079 10.86615171425455 -301 -62 24
426 62 12 -0.147307 9.671697804488703 24.632901977409176 12.391466313845537 -310 -62 20
424 62 10 -0.147296 10.025731504619962 24.090231334977673 13.628593234720995 -310 -62 20
421 62 7 -0.147307 12.26727118781773 25.093892841900583 13.447855496837766 -310 -62 20
422 62 8 -0.147259 11.299704451885209 24.387103042473093 14.12819106597032 -310 -62 20
123 21 3 0.125383 10.987031059906787 21.575482712495486 11.70409176823199 -306 -69 33
121 21 1 -0.250766 11.694055655372765 20.80313706248083 11.754728904272932 -306 -69 33
122 21 2 -0.250766 11.7488696501231 20.042853760050374 10.64680329399923 -306 -69 33
67 12 1 -0.250766 13.275470279879539 22.710218265086603 9.856195676069673 -301 -62 24
587 75 17 0.147221 14.357146471220139 22.807309705207835 12.594241154707168 -306 -60 23
430 62 16 0.1474 9.38648622170988 23.440505126701993 14.242701662858995 -310 -62 20
5 1 5 0.125383 10.976335834291598 21.19878409673776 14.936901163492065 -306 -56 27
428 62 14 0.147221 11.529435315008305 23.939900914251766 15.05431203541671 -310 -62 20
392 59 14 0.147221 11.429756356782226 24.373298150428212 18.503906575045193 -307 -62 28
386 59 8 -0.147259 10.574197006373499 23.7925075822234 18.767311003488025 -307 -62 28
385 59 7 -0.147307 9.479900515107078 23.783830616748844 17.860251727026878 -307 -62 28
391 59 13 0.147239 9.482436094189135 24.385066893799852 16.945213045971133 -307 -62 28
388 59 10 -0.147296 10.529509971109375 22.904261767165664 19.81516995040854 -307 -62 28
6 1 6 0.125383 9.509541194789126 21.53989804462997 15.975151269245663 -306 -56 27
477 66 15 0.1474 12.129233127197068 19.988815379494614 19.41849066258768 -305 -55 22
2 1 2 -0.250766 10.352488714843322 20.85992100386118 15.746395102716688 -306 -56 27
475 66 13 0.147239 14.185595887604885 21.440093893535874 19.497111200620914 -305 -55 22
478 66 16 0.1474 14.120186856008916 21.286164187734514 23.878513342489732 -305 -55 22
256 43 4 0.125383 11.344345161416097 23.348470449411124 25.33270409291476 -304 -65 26
471 66 9 -0.147296 12.618361680635514 20.274008342189873 20.343042260946454 -305 -55 22
171 29 3 0.125383 13.660387709155827 25.012393098057863 20.496846002138184 -302 -61 27
169 29 1 -0.250766 13.587761448678823 25.08621130272556 21.660684568770954 -302 -61 27
472 66 10 -0.147296 13.71068173230145 21.070455657863732 22.847899355312457 -305 -55 22
474 66 12 -0.147307 12.55407285497071 20.304222388135393 22.857492265096575 -305 -55 22
394 59 16 0.1474 11.320578787371378 22.74184732834199 20.606074448804755 -307 -62 28
470 66 8 -0.147259 14.275526249417767 21.48712371277248 21.626535609170958 -305 -55 22
172 29 4 0.125383 13.865347267684287 24.215827236634098 22.25231090793163 -302 -61 27
469 66 7 -0.147307 13.679138814637799 21.14212979815577 20.386212461385522 -305 -55 22
198 33 6 0.125383 14.514985849373387 5.5585780876453565 6.128693033469988 -296 -58 22
196 33 4 0.125383 15.780926178096376 6.028858219121838 8.801370177303312 -296 -58 22
197 33 5 0.125383 14.677163415709588 7.187477251910634 6.975646602759344 -296 -58 22
36 6 6 0.125383 16.161671529987828 8.672408189691119 8.634337612288814 -307 -50 33
32 6 2 -0.250766 15.313007752739715 8.969439323162389 9.130795137198984 -307 -50 33
193 33 1 -0.250766 15.515677364658295 5.472912016282308 7.876548338463326 -296 -58 22
194 33 2 -0.250766 14.789861463846865 6.131196258778099 6.949167450188028 -296 -58 22