LAMMPS (29 Aug 2024 - Update 1)
  using 1 OpenMP thread(s) per MPI task
Reading data file ...
  orthogonal box = (-0.037443 -0.056417 -0.007219) to (30.004642 30.05633 30.051537)
  4 by 4 by 4 MPI processor grid
  reading atoms ...
  1671 atoms
  scanning bonds ...
  4 = max bonds/atom
  scanning angles ...
  6 = max angles/atom
  orthogonal box = (-0.037443 -0.056417 -0.007219) to (30.004642 30.05633 30.051537)
  4 by 4 by 4 MPI processor grid
  reading bonds ...
  1132 bonds
  reading angles ...
  674 angles
Finding 1-2 1-3 1-4 neighbors ...
  special bond factors lj:    0        0        0.5     
  special bond factors coul:  0        0        0.5     
     4 = max # of 1-2 neighbors
     3 = max # of 1-3 neighbors
     3 = max # of 1-4 neighbors
     4 = max # of special neighbors
  special bonds CPU = 0.014 seconds
  read_data CPU = 0.025 seconds
1536 atoms in group tip3p
Finding SHAKE clusters ...
       0 = # of size 2 clusters
       0 = # of size 3 clusters
       0 = # of size 4 clusters
     512 = # of frozen angles
  find clusters CPU = 0.001 seconds

CITE-CITE-CITE-CITE-CITE-CITE-CITE-CITE-CITE-CITE-CITE-CITE-CITE

Your simulation uses code contributions which should be cited:
- Type Label Framework: https://doi.org/10.1021/acs.jpcb.3c08419
The log file lists these citations in BibTeX format.

CITE-CITE-CITE-CITE-CITE-CITE-CITE-CITE-CITE-CITE-CITE-CITE-CITE

PPPM initialization ...
  using 12-bit tables for long-range coulomb (../kspace.cpp:342)
  G vector (1/distance) = 0.2443868
  grid = 15 15 15
  stencil order = 5
  estimated absolute RMS force accuracy = 0.01640314
  estimated relative force accuracy = 4.9397568e-05
  using single precision MKL FFT
  3d grid and FFT values/proc = 1000 64
Generated 21 of 21 mixed pair_coeff terms from geometric mixing rule
Neighbor list info ...
  update: every = 1 steps, delay = 0 steps, check = yes
  max neighbors/atom: 2000, page size: 100000
  master list distance cutoff = 13
  ghost atom cutoff = 13
  binsize = 6.5, bins = 5 5 5
  1 neighbor lists, perpetual/occasional/extra = 1 0 0
  (1) pair lj/cut/coul/long, perpetual
      attributes: half, newton on
      pair build: half/bin/newton
      stencil: half/bin/3d
      bin: standard
Setting up cg style minimization ...
  Unit style    : real
  Current step  : 0
Per MPI rank memory allocation (min/avg/max) = 9.712 | 9.74 | 9.983 Mbytes
   Step          Temp          E_pair         E_mol          TotEng         Press     
         0   0              6728665        54451.367      6783116.4      68045865     
       302   0             -6228.21        401.27009     -5826.9399     -2624.8548    
Loop time of 0.299709 on 64 procs for 302 steps with 1671 atoms

97.8% CPU use with 64 MPI tasks x 1 OpenMP threads

Minimization stats:
  Stopping criterion = energy tolerance
  Energy initial, next-to-last, final = 
      6783116.35090036   -5826.4066124503  -5826.93992784704
  Force two-norm initial, final = 1.3998213e+08 27.800493
  Force max component initial, final = 80112156 5.0894854
  Final line search alpha, max atom move = 0.009025709 0.045936214
  Iterations, force evaluations = 302 558

MPI task timing breakdown:
Section |  min time  |  avg time  |  max time  |%varavg| %total
---------------------------------------------------------------
Pair    | 0.0089803  | 0.062932   | 0.12107    |   9.6 | 21.00
Bond    | 0.00016151 | 0.00045717 | 0.00078627 |   0.0 |  0.15
Kspace  | 0.10205    | 0.16043    | 0.21448    |   6.0 | 53.53
Neigh   | 0.005921   | 0.0068645  | 0.0075752  |   0.5 |  2.29
Comm    | 0.043926   | 0.045492   | 0.047045   |   0.3 | 15.18
Output  | 0          | 0          | 0          |   0.0 |  0.00
Modify  | 0          | 0          | 0          |   0.0 |  0.00
Other   |            | 0.02353    |            |       |  7.85

Nlocal:        26.1094 ave          46 max           8 min
Histogram: 4 9 5 9 5 9 9 9 1 4
Nghost:        2286.42 ave        2391 max        2205 min
Histogram: 6 6 7 8 9 14 5 4 2 3
Neighs:        7446.22 ave       14984 max        1660 min
Histogram: 3 9 8 10 9 10 6 4 1 4

Total # of neighbors = 476558
Ave neighs/atom = 285.1933
Ave special neighs/atom = 2.1615799
Neighbor list builds = 14
Dangerous builds = 0
System init for write_data ...
PPPM initialization ...
  using 12-bit tables for long-range coulomb (../kspace.cpp:342)
  G vector (1/distance) = 0.2443868
  grid = 15 15 15
  stencil order = 5
  estimated absolute RMS force accuracy = 0.01640314
  estimated relative force accuracy = 4.9397568e-05
  using single precision MKL FFT
  3d grid and FFT values/proc = 1000 64
Generated 21 of 21 mixed pair_coeff terms from geometric mixing rule
Total wall time: 0:00:00
